<?xml version="1.0"?>
<VTKFile type="UnstructuredGrid"  version="0.1"  >
<UnstructuredGrid>
<Piece  NumberOfPoints="13617" NumberOfCells="26706">
<Points>
<DataArray  type="Float64"  NumberOfComponents="3"  format="ascii">1.2 0 0  0 2.7 0  0 50 0  15.1 50 0  15.1 13 0  5.2 13 0  5.2 2.7 0  6.4 0 0  1.100000000000162 0.2249999999996352 0  1.000000000000396 0.4499999999991098 0  0.9000000000006876 0.6749999999984529 0  0.8000000000009782 0.899999999997799 0  0.7000000000012672 1.124999999997149 0  0.6000000000015488 1.349999999996515 0  0.5000000000012775 1.574999999997126 0  0.4000000000010363 1.799999999997669 0  0.3000000000008125 2.024999999998172 0  0.2000000000006392 2.249999999998562 0  0.1000000000003256 2.474999999999268 0  0 2.948947368420554 0  0 3.197894736841108 0  0 3.44684210526166 0  0 3.695789473682156 0  0 3.944736842102652 0  0 4.193684210523144 0  0 4.442631578943582 0  0 4.691578947363951 0  0 4.940526315784282 0  0 5.189473684204719 0  0 5.4384210526253 0  0 5.687368421045984 0  0 5.936315789466772 0  0 6.185263157887485 0  0 6.434210526308156 0  0 6.683157894728827 0  0 6.932105263149499 0  0 7.18105263157017 0  0 7.429999999990841 0  0 7.678947368411512 0  0 7.927894736832183 0  0 8.176842105252854 0  0 8.425789473673611 0  0 8.67473684209434 0  0 8.923684210514892 0  0 9.172631578935448 0  0 9.421578947355936 0  0 9.670526315776257 0  0 9.91947368419639 0  0 10.16842105261655 0  0 10.41736842103687 0  0 10.666315789457 0  0 10.91526315787716 0  0 11.16421052629748 0  0 11.4131578947178 0  0 11.66210526313812 0  0 11.91105263155844 0  0 12.15999999997876 0  0 12.40894736839889 0  0 12.65789473681875 0  0 12.90684210523903 0  0 13.15578947365935 0  0 13.40473684207967 0  0 13.65368421049999 0  0 13.90263157892031 0  0 14.15157894734063 0  0 14.40052631576049 0  0 14.64947368418058 0  0 14.8984210526009 0  0 15.14736842102122 0  0 15.39631578944154 0  0 15.64526315786186 0  0 15.89421052628218 0  0 16.14315789470249 0  0 16.39210526312285 0  0 16.64105263154364 0  0 16.88999999996415 0  0 17.13894736838447 0  0 17.38789473680479 0  0 17.63684210522511 0  0 17.88578947364543 0  0 18.13473684206575 0  0 18.38368421048638 0  0 18.63263157890716 0  0 18.88157894732795 0  0 19.13052631574842 0  0 19.37947368416864 0  0 19.6284210525885 0  0 19.87736842100869 0  0 20.12631578942901 0  0 20.37526315784933 0  0 20.62421052626965 0  0 20.87315789468997 0  0 21.1221052631103 0  0 21.37105263153024 0  0 21.61999999995024 0  0 21.86894736837056 0  0 22.11789473679088 0  0 22.3668421052112 0  0 22.61578947363152 0  0 22.86473684205184 0  0 23.113684210472 0  0 23.36263157889185 0  0 23.61157894731211 0  0 23.86052631573243 0  0 24.10947368415275 0  0 24.35842105257307 0  0 24.6073684209934 0  0 24.85631578941371 0  0 25.10526315783403 0  0 25.35421052625457 0  0 25.60315789467536 0  0 25.85210526309569 0  0 26.10105263151602 0  0 26.34999999993633 0  0 26.59894736835759 0  0 26.84789473677908 0  0 27.09684210520081 0  0 27.34578947362253 0  0 27.59473684204426 0  0 27.84368421046595 0  0 28.09263157888721 0  0 28.34157894730846 0  0 28.59052631572976 0  0 28.83947368415148 0  0 29.08842105257321 0  0 29.33736842099493 0  0 29.58631578941665 0  0 29.83526315783837 0  0 30.0842105262601 0  0 30.33315789468182 0  0 30.58210526310355 0  0 30.83105263152527 0  0 31.079999999947 0  0 31.32894736836872 0  0 31.57789473679044 0  0 31.82684210521216 0  0 32.07578947363424 0  0 32.32473684205654 0  0 32.5736842104792 0  0 32.82263157890114 0  0 33.0715789473226 0  0 33.32052631574339 0  0 33.56947368416492 0  0 33.81842105258693 0  0 34.0673684210096 0  0 34.31631578943225 0  0 34.56526315785491 0  0 34.81421052627757 0  0 35.06315789469942 0  0 35.31210526312079 0  0 35.56105263154159 0  0 35.8099999999632 0  0 36.0589473683853 0  0 36.30789473680796 0  0 36.55684210523063 0  0 36.80578947365287 0  0 37.05473684207459 0  0 37.30368421049542 0  0 37.55263157891665 0  0 37.80157894733837 0  0 38.05052631576101 0  0 38.29947368418367 0  0 38.54842105260632 0  0 38.79736842102804 0  0 39.04631578944927 0  0 39.2952631578701 0  0 39.54421052629182 0  0 39.79315789471407 0  0 40.04210526313673 0  0 40.29105263155938 0  0 40.53999999998149 0  0 40.78894736840311 0  0 41.03789473682389 0  0 41.28684210524526 0  0 41.53578947366712 0  0 41.78473684208978 0  0 42.03368421051182 0  0 42.28263157893338 0  0 42.53157894735417 0  0 42.78052631577496 0  0 43.02947368419593 0  0 43.27842105261765 0  0 43.52736842104006 0  0 43.77631578946249 0  0 44.02526315788421 0  0 44.27421052630523 0  0 44.52315789472603 0  0 44.77210526314681 0  0 45.02105263156832 0  0 45.26999999999033 0  0 45.51894736841299 0  0 45.76789473683488 0  0 46.01684210525629 0  0 46.26578947367708 0  0 46.51473684209788 0  0 46.763684210519 0  0 47.01263157894071 0  0 47.26157894736325 0  0 47.51052631578555 0  0 47.75947368420727 0  0 48.00842105262815 0  0 48.25736842104894 0  0 48.50631578946972 0  0 48.75526315789138 0  0 49.00421052631354 0  0 49.25315789473619 0  0 49.50210526315794 0  0 49.75105263157921 0  0.2475409836060729 50 0  0.4950819672121348 50 0  0.7426229508181359 50 0  0.9901639344241753 50 0  1.237704918030303 50 0  1.485245901636441 50 0  1.732786885242668 50 0  1.980327868848636 50 0  2.22786885245449 50 0  2.475409836060266 50 0  2.722950819666129 50 0  2.970491803271904 50 0  3.218032786877767 50 0  3.465573770483596 50 0  3.713114754089406 50 0  3.960655737695367 50 0  4.208196721301332 50 0  4.455737704907013 50 0  4.703278688513016 50 0  4.950819672118719 50 0  5.198360655724583 50 0  5.445901639330426 50 0  5.693442622936151 50 0  5.940983606542132 50 0  6.188524590147813 50 0  6.436065573753762 50 0  6.68360655735952 50 0  6.93114754096533 50 0  7.178688524571226 50 0  7.426229508176905 50 0  7.673770491783661 50 0  7.921311475390822 50 0  8.168852458998108 50 0  8.416393442605123 50 0  8.66393442621203 50 0  8.911475409819166 50 0  9.159016393425958 50 0  9.406557377033092 50 0  9.654098360639937 50 0  9.901639344247016 50 0  10.1491803278545 50 0  10.39672131146164 50 0  10.64426229506885 50 0  10.89180327867626 50 0  11.13934426228339 50 0  11.38688524589088 50 0  11.63442622949801 50 0  11.8819672131054 50 0  12.12950819671263 50 0  12.37704918031977 50 0  12.62459016392725 50 0  12.87213114753439 50 0  13.11967213114187 50 0  13.367213114749 50 0  13.61475409835628 50 0  13.86229508196362 50 0  14.10983606557076 50 0  14.35737704917825 50 0  14.60491803278538 50 0  14.85245901639283 50 0  15.1 49.74999999999798 0  15.1 49.49999999999596 0  15.1 49.24999999999395 0  15.1 48.99999999999257 0  15.1 48.74999999999265 0  15.1 48.4999999999945 0  15.1 48.24999999999729 0  15.1 48.00000000000007 0  15.1 47.75000000000176 0  15.1 47.50000000000155 0  15.1 47.25000000000002 0  15.1 46.999999999998 0  15.1 46.74999999999599 0  15.1 46.49999999999397 0  15.1 46.24999999999196 0  15.1 45.99999999999226 0  15.1 45.7499999999946 0  15.1 45.49999999999738 0  15.1 45.25000000000016 0  15.1 45.00000000000295 0  15.1 44.75000000000573 0  15.1 44.50000000000852 0  15.1 44.2500000000113 0  15.1 44.00000000001408 0  15.1 43.75000000001687 0  15.1 43.50000000001965 0  15.1 43.25000000002244 0  15.1 43.00000000002522 0  15.1 42.75000000002801 0  15.1 42.50000000003079 0  15.1 42.25000000003357 0  15.1 42.00000000003636 0  15.1 41.75000000003914 0  15.1 41.50000000004193 0  15.1 41.25000000004471 0  15.1 41.00000000004749 0  15.1 40.75000000005028 0  15.1 40.50000000005306 0  15.1 40.25000000005585 0  15.1 40.00000000005863 0  15.1 39.75000000006142 0  15.1 39.5000000000642 0  15.1 39.25000000006698 0  15.1 39.00000000006977 0  15.1 38.75000000007255 0  15.1 38.50000000007534 0  15.1 38.25000000007812 0  15.1 38.00000000008091 0  15.1 37.75000000008369 0  15.1 37.50000000008647 0  15.1 37.25000000008926 0  15.1 37.00000000009204 0  15.1 36.75000000009483 0  15.1 36.50000000009761 0  15.1 36.2500000001004 0  15.1 36.00000000010318 0  15.1 35.75000000010596 0  15.1 35.50000000010875 0  15.1 35.25000000011153 0  15.1 35.00000000011432 0  15.1 34.7500000001171 0  15.1 34.50000000011988 0  15.1 34.25000000012267 0  15.1 34.00000000012545 0  15.1 33.75000000012824 0  15.1 33.50000000013102 0  15.1 33.25000000013381 0  15.1 33.00000000013659 0  15.1 32.75000000013938 0  15.1 32.50000000014216 0  15.1 32.25000000014494 0  15.1 32.00000000014735 0  15.1 31.75000000014866 0  15.1 31.50000000014844 0  15.1 31.25000000014702 0  15.1 31.0000000001451 0  15.1 30.75000000014308 0  15.1 30.50000000014106 0  15.1 30.25000000013905 0  15.1 30.00000000013704 0  15.1 29.75000000013502 0  15.1 29.50000000013301 0  15.1 29.25000000013099 0  15.1 29.00000000012897 0  15.1 28.75000000012696 0  15.1 28.50000000012495 0  15.1 28.25000000012293 0  15.1 28.00000000012091 0  15.1 27.7500000001189 0  15.1 27.50000000011688 0  15.1 27.25000000011487 0  15.1 27.00000000011285 0  15.1 26.75000000011084 0  15.1 26.50000000010882 0  15.1 26.25000000010681 0  15.1 26.00000000010479 0  15.1 25.75000000010278 0  15.1 25.50000000010076 0  15.1 25.25000000009875 0  15.1 25.00000000009673 0  15.1 24.75000000009472 0  15.1 24.5000000000927 0  15.1 24.25000000009068 0  15.1 24.00000000008867 0  15.1 23.75000000008665 0  15.1 23.50000000008464 0  15.1 23.25000000008262 0  15.1 23.00000000008061 0  15.1 22.75000000007859 0  15.1 22.50000000007658 0  15.1 22.25000000007456 0  15.1 22.00000000007255 0  15.1 21.75000000007053 0  15.1 21.50000000006852 0  15.1 21.2500000000665 0  15.1 21.00000000006449 0  15.1 20.75000000006247 0  15.1 20.50000000006046 0  15.1 20.25000000005844 0  15.1 20.00000000005643 0  15.1 19.75000000005441 0  15.1 19.5000000000524 0  15.1 19.25000000005038 0  15.1 19.00000000004837 0  15.1 18.75000000004635 0  15.1 18.50000000004433 0  15.1 18.25000000004232 0  15.1 18.00000000004031 0  15.1 17.75000000003829 0  15.1 17.50000000003627 0  15.1 17.25000000003426 0  15.1 17.00000000003224 0  15.1 16.75000000003023 0  15.1 16.50000000002822 0  15.1 16.2500000000262 0  15.1 16
[...]
<PointData  Scalars="presion"> 
<DataArray  type="Float64"  Name="presion"  format="ascii">6.7255555725015700e+07  1.5555914350655060e+07  9.9466197488747933e+05  2.0868783751535881e+04  -1.1173875855150025e+06  -6.0515133395135822e+06  1.3993851487813048e+07  1.3136451114379875e+08  2.3713222246334389e+07  2.4609202686191760e+07  2.1933200537314843e+07  2.1067037448541619e+07  2.0112795846959129e+07  1.9408843409292646e+07  1.8638969524453796e+07  1.7840391317931276e+07  1.7010722129859116e+07  1.5888422275531931e+07  1.4101241604158200e+07  2.0864946532592312e+07  1.7322759600780323e+07  2.0368568721945811e+07  1.6841043277934060e+07  1.6552290622185681e+07  1.5344568271576017e+07  1.5625959754373971e+07  1.1602845059132108e+07  1.5883856257764881e+07  1.1801125513301445e+07  1.2692051309671221e+07  8.0513763121219482e+06  1.3097185970328070e+07  1.0140090675488103e+07  1.0712768543443264e+07  5.2693702076801285e+06  9.4659135343005396e+06  6.7911937287384328e+06  6.3518078129436485e+06  4.8073441809138004e+06  8.7507901825829688e+06  3.0691511954653221e+06  5.2045880837685531e+06  5.6451068605001112e+06  3.3933782290648087e+06  2.7788895188917238e+06  1.6152243108006588e+06  7.1772068813026659e+06  1.2044166065326873e+06  5.7984574766151663e+06  1.3349732411550994e+06  8.1046881524317223e+05  -1.0999323837020849e+06  5.5906150271503497e+06  1.6405115931228297e+06  -1.3913885376149840e+06  -4.3078396104258811e+06  2.3253838250503177e+06  1.3092036709397184e+06  2.0919031172017669e+05  -3.1823340136521375e+06  3.0476203149507451e+06  -9.8885858064653154e+05  -1.4445885055776292e+06  -4.3717661151568200e+06  2.7963381307757408e+06  -3.2188215648683105e+06  -7.9001858482535474e+05  -6.1292298627087101e+05  -9.9651002598059434e+05  -3.3384275429799361e+06  9.0296789072110399e+05  -3.5780433158337115e+06  -2.2279656362214261e+06  3.0697029848857527e+06  -5.4365205028020330e+06  1.0039803596578873e+06  -2.3261026032110364e+06  -2.6273166534433728e+06  -9.1310938823013625e+05  -1.5138777267711639e+05  -2.9868384635496046e+06  1.2286031100794903e+06  -2.9044024286648305e+06  -1.3986472922683104e+06  3.4229791950448294e+05  -2.9318773811840004e+05  -2.6997180579012996e+06  1.2929802067550875e+06  -4.1626439730070471e+06  1.3576059638100088e+05  -2.9518877590584708e+06  1.4430408358384413e+06  -3.9679238813232440e+06  1.1968747889621945e+06  -1.4149394432087124e+06  -4.3887496687378380e+06  1.3292556836131334e+06  -1.7735247166407774e+06  -1.3605115917022633e+06  -9.3006847136093117e+05  5.1522928052792005e+05  -2.3682868763094102e+06  -1.0697834503507668e+06  -1.4173865503395279e+05  -6.2942113354150334e+05  -2.5446208102334114e+06  1.4442173808836320e+06  -3.6251239790034862e+06  1.1234549809789923e+06  -2.3119299797998383e+06  -1.4562116632736982e+06  -1.1514965741584012e+06  -1.4156689738408464e+06  -3.4061040160889461e+04  -2.5978705979858357e+06  -1.8305737118769629e+05  -3.0887837003443632e+06  1.0189940589579880e+06  -2.3335281017586840e+06  4.9828204839612445e+05  -2.4632625627509886e+06  -1.0935450363834619e+06  -1.8716247380696654e+06  5.7750540928601276e+05  -1.9685731103681750e+06  -6.5177331007807702e+05  -8.5691029289187712e+05  -2.0824819604180460e+06  -8.0140183690388163e+05  3.9847960220979163e+04  7.8806603133870303e+04  -1.5939665159646233e+06  -1.1963323025058175e+06  -2.4565940939659617e+05  -3.0875828929019943e+06  6.5113532693826116e+05  -8.0591564424072881e+05  -1.1507342522022405e+06  -1.8583308144873665e+06  1.1982554314484831e+06  -5.3219539809823246e+05  -2.0217055785931658e+06  1.4783184626068009e+05  -8.1233792987860576e+05  -8.5532968121260405e+05  -6.8460326031518984e+05  2.7641893036374019e+05  -1.4762507933554223e+06  -5.4916002705779206e+05  -5.5078683899456984e+05  -6.4280893049905251e+05  -8.7806970977462479e+03  -1.4378703294250006e+06  -6.1484149317080132e+05  -2.2153145759141722e+05  -4.3757208342573576e+04  -1.2179604019510089e+06  -7.7533662771594012e+04  -1.1776366313792930e+06  8.8620987299201661e+05  -1.8882803658620110e+06  4.6876583121297683e+05  -7.3025946581871726e+05  -5.7366078782325785e+05  -4.7880649658551539e+05  6.2869706507220071e+04  -1.8991365546526871e+04  -1.3519386344984865e+06  3.6797624037972087e+05  -4.8426161445157364e+05  -3.9704397338408604e+05  9.0864073086614815e+02  -8.9021065501331980e+05  -5.0254529226259858e+05  5.9431582444703754e+05  -1.2015649564612901e+06  6.9425126398002345e+05  -1.2268310687471998e+06  -8.1010924479553616e+05  7.4377441753902950e+05  -4.8760325231032970e+05  -2.4577523872414877e+05  -1.0439453219841543e+06  9.3357911147791578e+05  -7.0091110479397501e+05  1.3938912891580037e+02  -6.7301825606792630e+05  6.4664029055006988e+05  -1.0006315053061240e+06  2.9412187046671874e+05  4.9273343684151501e+05  -5.2034637256934046e+05  -1.1496610842534134e+06  8.2686079947581503e+05  -6.2299292632757477e+05  1.2493989216011476e+05  -4.4371854333587107e+05  -6.3066730414505495e+04  -1.6001381868043367e+05  4.1099583631357731e+05  -2.3892494104660035e+05  -9.5869416874228907e+05  3.6054926640070206e+05  1.5441444060397701e+05  -6.6921823337280913e+05  5.6443313469991600e+05  -1.1400024483705738e+06  6.5079104835875565e+04  -1.2911994271970497e+05  -4.7082377149666543e+04  -4.9846503895603681e+04  -5.4317460184652220e+04  -5.5463605753939104e+04  -5.6231265539829881e+04  -5.6515627964211963e+04  -5.6517500165206278e+04  -5.6218074834332627e+04  -5.5663168482720124e+04  -5.4892482868211097e+04  -5.3888734446604911e+04  -5.2664573019670272e+04  -5.1219536321874461e+04  -4.9598733648065267e+04  -4.7831322833848317e+04  -4.5895620801047829e+04  -4.3825755922348020e+04  -4.1616781723822351e+04  -3.9329467611869179e+04  -3.6956607127716714e+04  -3.4519286362811254e+04  -3.2029643515207135e+04  -2.9481104424294856e+04  -2.6946791906599119e+04  -2.4413747768842470e+04  -2.1863981817528678e+04  -1.9348447389768346e+04  -1.6871189440427072e+04  -1.4463632743460344e+04  -1.2071441910205725e+04  -9.7744669874941028e+03  -7.5374940862659150e+03  -5.3719191066125231e+03  -3.3058632380672816e+03  -1.2829615119892628e+03  6.0860276922755520e+02  2.4142889038554868e+03  4.1441273806180798e+03  5.7776354562624247e+03  7.3043136767117394e+03  8.7447282051099264e+03  1.0097835406517232e+04  1.1366036876395188e+04  1.2528584278505043e+04  1.3622448268323740e+04  1.4626527173524188e+04  1.5530072473634171e+04  1.6371150589678738e+04  1.7121488951155989e+04  1.7807102911308426e+04  1.8407447764945726e+04  1.8945920517288290e+04  1.9408412066143472e+04  1.9805897514413035e+04  2.0137865707564964e+04  2.0407382767542666e+04  2.0611891651117559e+04  2.0755994653530182e+04  2.0840817539253556e+04  1.2837966777092664e+04  4.8012536415832501e+03  -3.2534212472606864e+03  -1.1336807275065046e+04  -1.9460958438072743e+04  -2.7632971037606359e+04  -3.5871683757169361e+04  -4.4179516653798397e+04  -5.2565311480527816e+04  -6.1042077504719156e+04  -6.9617777296011889e+04  -7.8301054504592612e+04  -8.7094534611384777e+04  -9.6010880478463398e+04  -1.0504896996699389e+05  -1.1422110687830973e+05  -1.2353202293091727e+05  -1.3297341393921620e+05  -1.4256097816036845e+05  -1.5229497077017601e+05  -1.6217479603424561e+05  -1.7219892129180330e+05  -1.8237401181982164e+05  -1.9270012860746915e+05  -2.0317043279193592e+05  -2.1378688816486011e+05  -2.2455805031103012e+05  -2.3546225649773414e+05  -2.4651832225092800e+05  -2.5770958041856930e+05  -2.6904233613418136e+05  -2.8050024323947314e+05  -2.9209892492547794e+05  -3.0381901802682038e+05  -3.1566553688699956e+05  -3.2762903608769237e+05  -3.3970583373848110e+05  -3.5189555449960823e+05  -3.6418679035444703e+05  -3.7658179396148236e+05  -3.8907140429687226e+05  -4.0165089270595292e+05  -4.1431219854338717e+05  -4.2705469089459308e+05  -4.3987092473646614e+05  -4.5275513121751335e+05  -4.6570079624812037e+05  -4.7870522568589007e+05  -4.9175980355384358e+05  -5.0485351737445302e+05  -5.1799135615078086e+05  -5.3116028858938848e+05  -5.4435274861338071e+05  -5.5756822676475497e+05  -5.7079285011173051e+05  -5.8402917963963398e+05  -5.9726495859292895e+05  -6.1049386306169524e+05  -6.2370832283099077e+05  -6.3690589161628659e+05  -6.5008724718478613e+05  -6.6322346540089033e+05  -6.7633138391360629e+05  -6.8938980510539317e+05  -7.0240257358453085e+05  -7.1535331697985239e+05  -7.2823953013598407e+05  -7.4106035860815598e+05  -7.5380219487830065e+05  -7.6645928744892974e+05  -7.7902390855955798e+05  -7.9150174081449409e+05  -8.0386568405115453e+05  -8.1612576471047685e+05  -8.2827581566500908e+05  -8.4030121623343427e+05  -8.5218615696003695e+05  -8.6396074275699072e+05  -8.7557738409922912e+05  -8.8705036090143095e+05  -8.9836782102478517e+05  -9.0953201723112958e+05  -9.2052165781516652e+05  -9.3135493025945127e+05  -9.4199960724270612e+05  -9.5246749359905429e+05  -9.6276212782104244e+05  -9.7282026869241928e+05  -9.8272670894992165e+05  -9.9239892044232006e+05  -1.0018695374651446e+06  -1.0111374553466960e+06  -1.0201480573716925e+06  -1.0289782287866947e+06  -1.0375677762997817e+06  -1.0459189778229624e+06  -1.0540030692230712e+06  -1.0618941887608955e+06  -1.0695116396000534e+06  -1.0768832392299108e+06  -1.0839986861329318e+06  -1.0908614254960485e+06  -1.0974680006785695e+06  -1.1038134089530800e+06  -1.1098965478771501e+06  -1.1156813248850633e+06  -1.1212483986415043e+06  -1.1265282291627438e+06  -1.1315327650007978e+06  -1.1362718804893114e+06  -1.1407432096922894e+06  -1.1449521044091228e+06  -1.1488756519061993e+06  -1.1525514659233941e+06  -1.1559209875232745e+06  -1.1591088384734879e+06  -1.1619668358158919e+06  -1.1645916930776476e+06  -1.1669707464632266e+06  -1.1690983342263489e+06  -1.1709815436365788e+06  -1.1726332932744909e+06  -1.1740464379849900e+06  -1.1752297394491285e+06  -1.1761487230092145e+06  -1.1769359007739970e+06  -1.1774425554221640e+06  -1.1777046860957900e+06  -1.1777896896389714e+06  -1.1776781358385615e+06  -1.1772996189356507e+06  -1.1767110140110322e+06  -1.1758881169931833e+06  -1.1747969561506691e+06  -1.1734845270197510e+06  -1.1718516704131374e+06  -1.1699182675417992e+06  -1.1676621770800145e+06  -1.1650178276388552e+06  -1.1619727358860248e+06  -1.1584398433756661e+06  -1.1544804051485818e+06  -1.1499181050370759e+06  -1.1447966116694771e+06  -1.1389550344254540e+06  -1.1325278748819672e+06  -1.1253578816054026e+06  -1.1177131287056338e+06  -1.1188396443873325e+06  -1.1208443788358504e+06  -1.1234407488653495e+06  -1.1270755758265003e+06  -1.1313746312826097e+06  -1.1366293824306082e+06  -1.1426690912574537e+06  -1.1496838606054210e+06  -1.1576100636683218e+06  -1.1664933137734011e+06  -1.1763901377319838e+06  -1.1873814200023836e+06  -1.1995415513613930e+06  -1.2128282491556287e+06  -1.2272824633958016e+06  -1.2432405946026037e+06  -1.2606151473063473e+06  -1.2796526543169727e+06  -1.3004370498518678e+06  -1.3231422916854499e+06  -1.3483936986065775e+06  -1.3759254145021962e+06  -1.4067010329611260e+06  -1.4411152869664158e+06  -1.4796275937784610e+06  -1.5234335867100449e+06  -1.5727311059820501e+06  -1.6321572898003047e+06  -1.6992276359203663e+06  -1.7814508327223263e+06  -1.8785489728267593e+06  -2.0019749081118600e+06  -2.1571685731268236e+06  -2.3639391947787674e+06  -2.6400512198161688e+06  -3.0636851725230212e+06  -3.6626105430860193e+06  -5.6563425052519199e+06  -6.0186537641137443e+05  -1.5029585967700791e+06  -1.0428480248387925e+06  -7.0971132915147603e+05  -3.5642188873124548e+05  8.4062308477554006e+02  3.5812773657930829e+05  7.1425491038681509e+05  1.0689112549634085e+06  1.4228366120563420e+06  1.7755955304722288e+06  2.1277513249592725e+06  2.4792473630745644e+06  2.8303778996521449e+06  3.1809872724746834e+06  3.5313974157728148e+06  3.8811913265934936e+06  4.2308004084474500e+06  4.5799783106432427e+06  4.9283715855913125e+06  5.2762588209257061e+06  5.6236739505486498e+06  5.9695154901912920e+06  6.3142832830588613e+06  6.6573100102792401e+06  6.9991102706546774e+06  7.3373252415330783e+06  7.6732176879351465e+06  8.0057970410448145e+06  8.3346286154280081e+06  8.6574184144723043e+06  8.9740018767574877e+06  9.2835884453750122e+06  9.5821208581249546e+06  9.8707833886770997e+06  1.0143866223120166e+07  1.0388318931778496e+07  1.0611103478379948e+07  1.0792294743309611e+07  1.1000113478345001e+07  1.0204932945974398e+07  1.8529292166933775e+07  1.9183619508863289e+07  2.0639568753637359e+07  2.2017017993677691e+07  2.3504864649750352e+07  2.5135933252162777e+07  2.7040102951225769e+07  2.9758605811347298e+07  3.3767089933324903e+07  4.0305507277692325e+07  6.0093964996578589e+07  7.6760491451619104e+07  4.4709331868681192e+07  3.7339657843214281e+07  3.3235941620340869e+07  3.0360431188378017e+07  2.8653003774742737e+07  2.7380465350843493e+07  2.6484551149528697e+07  2.5941713377683945e+07  2.5533362184685074e+07  2.5318933802783545e+07  2.5224475415851258e+07  2.5257565953227676e+07  2.5399497488059107e+07  2.5671468986112073e+07  2.6065684190884534e+07  2.6699284453157756e+07  2.7739507722788874e+07  2.9069496377214555e+07  3.9991613354508489e+07  -9.4920361758425261e+05  -1.1482295978788242e+06  -6.1394924622314190e+05  -9.7631381895972462e+05  -3.1574313382223668e+05  -2.8164997833917409e+03  -1.1980779088075219e+06  -2.9764300858481805e+05  8.3460482841658555e+06  -8.2980210259306827e+05  -4.9788588828828378e+05  -1.6450784250637728e+06  -3.2726822238619940e+05  1.0290979032344827e+07  -1.1263284146138087e+06  -1.1532243605519894e+06  -1.1291760474425333e+06  -7.2940067454041273e+05  -1.3010186882478865e+05  1.4642768002236206e+07  -8.4499871181912057e+05  -6.9523616369474377e+05  -1.2158888690781323e+06  6.0421128604429848e+06  -1.1563422311586379e+06  -4.1495465007317043e+05  9.4635323705842812e+06  -6.3186642022914300e+05  -1.2522591298701812e+06  -1.9398199145499739e+05  -7.9052516302160814e+05  -1.1958776909284478e+06  -1.1964618125535836e+06  -9.9343259079838812e+05  -4.1250576379830154e+03  -7.8681493743816635e+05  -8.5111301724537427e+05  -7.9877139175291685e+05  -3.0083715787876560e+05  -9.9483899753643584e+05  -5.5476974562215665e+05  7.2708263753257121e+05  -2.4513679885519817e+05  -1.0103706601978616e+06  -1.1317247665212696e+05  8.0985494534564875e+06  -9.4817543968842248e+05  -3.5082663790895138e+05  -1.1083078653541671e+06  -8.1054758420418436e+05  -1.3881325937911877e+05  -9.7824680558267399e+05  -7.9894845182115649e+04  -1.0450071724734426e+06  -1.1383491100565158e+06  -9.3923186371927251e+04  -1.0681699644453591e+06  7.4597977027581073e+06  -1.1581252712745313e+06  -2.1817322642093482e+06  -4.7693217016695235e+03  -4.4823552864949399e+05  5.3587618093231963e+06  -1.1777705720820951e+06  -1.3062680140009837e+06  -9.4010442194681568e+05  -4.0193755782099041e+04  -1.0124202164254652e+06  -1.7899602290225492e+06  -6.7105248114515096e+05  -4.6947437459488181e+04  -5.1211304879477178e+05  -1.1819947564851337e+06  9.2331395693108179e+06  -1.0715362189122839e+06  -7.2420562726747501e+05  -8.4154035940374515e+05  -7.9297181819308549e+05  -5.4674973342501803e+05  -1.0662656236194163e+06  -1.1318272591596695e+06  -3.8752013373447116e+05  -5.3385334213961149e+04  -1.1684562919017926e+06  -1.1837879579047286e+06  -2.6917353451299196e+05  -1.2094218365583271e+06  -2.1912213101231074e+05  1.1688389425282843e+07  -3.5444463021546137e+05  -1.5521849074515575e+05  -8.0504011929566553e+05  -9.3155622882041172e+05  -7.8364630161043649e+04  -6.7718765534154559e+05  -1.9271327504674724e+05  6.6551558894052003e+06  -3.4292084187179804e+05  -1.0134402312316839e+05  -3.1693272865099797e+05  -1.2481286556277348e+04  -4.0959047106224862e+04  1.3272776342659598e+07  -1.3855423779410357e+06  -9.7499050201271754e+05  -1.0533276204793516e+06  -3.7474013439394832e+04  -7.6474575294078549e+05  -1.2151719844631355e+06  -1.2403212211952442e+06  -1.3598680867501511e+06  -6.7512647915761929e+05  -1.3145712527878438e+06  -5.3584880298962526e+05  2.0572178536601942e+07  -9.5629895121007075e+05  -9.0295975583220483e+05  -3.4222678493474837e+05  -2.4621205456390954e+05  -1.0536842334380590e+06  -1.2516879907164066e+06  -1.0814069558954590e+06  -5.9806287565286318e+05  -1.2745317492036736e+06  -1.1974524842678278e+06  -1.2555617986489953e+06  -4.3153669541252602e+05  -1.1853232818751086e+06  -7.7857081377299514e+05  -1.3224160348548465e+06  -1.1173155290309184e+06  3.6592870477353826e+07  -1.5655183839969197e+06  -3.6370710268190765e+05  -6.3587155336177687e+05  -9.5731496436513471e+05  -4.1315752666230802e+05  -1.2358627576458130e+06  -9.9911269008899236e+05  -1.0590090680871408e+06  -5.4242936081124695e+04  -1.1170567279553383e+06  -5.9582202752292657e+05  -2.7571481691200699e+05  2.1793356773291934e+07  -2.6888039639420045e+05  -1.3553705971205742e+06  -8.7608260584346863e+04  4.0854856918342273e+04  -8.7237816910120239e+05  -5.9785160877980106e+05  -7.3875858960364794e+05  -9.9764396659637114e+05  -1.0917995115175033e+06  -2.1521063268876419e+05  -1.1762936027542381e+06  -9.4136178299451456e+05  -7.7228696927968320e+05  5.8567135236132937e+06  -9.6033346264752175e+05  -1.0028386319125774e+06  -5.8234986176426429e+05  -6.7668428584317036e+05  -1.2238063657589224e+06  -1.1858685305009496e+06  -6.9795059149901819e+04  -8.2101298859312024e+05  -7.8272494012745784e+05  -1.4772239400904262e+06  -6.0386877126959106e+05  -7.7585887165561027e+05  -1.2904580156952606e+06  -1.4023439232876659e+06  -3.8440231723359256e+05  -2.4988248955570685e+04  -1.1891633526403809e+06  -7.9919079402789357e+05  -8.0685516715447899e+04  -5.0214762784695794e+05  2.0254346705722153e+07  -2.5614269219650902e+05  -8.6663469422873645e+05  5.7303225294902995e+06  -1.1204658291272558e+06  1.0496365856457522e+07  -1.0167992343822380e+06  5.2630420814447477e+05  5.4684486114498870e+06  4.9827126463287044e+06  -7.7795333447038499e+05  -1.0174361058153039e+06  -8.9403330572807824e+05  -9.7286042631210817e+05  -7.0013849059296155e+05  -9.4871850223063061e+05  8.8722785602681283e+06  -1.3137142164567267e+05  -1.6440746052643575e+06  -1.4981120222152467e+05  5.8562737484029289e+06  -1.2013728606857741e+06  -1.3543016197285256e+06  -6.8763535903922224e+05  -5.6750020453703683e+05  1.0241320277090613e+07  -9.6287459114208375e+05  -5.3041636393215356e+05  -1.3980953820041961e+06  -1.0295778294383857e+06  -1.0168885527005151e+06  -1.3735152965750624e+06  -6.0491093026486738e+05  -9.8711228485845888e+04  1.8968565006781366e+07  -1.2079003445727180e+06  -2.4604570336297766e+05  -1.1058847756521227e+06  -1.9534735752217894e+05  -5.6735281582607236e+05  -2.0261324567114448e+05  -5.3253195175299225e+04  -7.4555681760752748e+05  5.8591182612771336e+06  -3.0364288256111508e+06  -7.7252368575346319e+05  -1.1715903950716136e+06  -7.8456589873005508e+05  -4.6273012321979931e+05  -1.0360306765495687e+06  -2.6143531538123963e+05  -6.1227711865188915e+05  -4.6980928943773535e+04  -5.0166839611518616e+05  -9.2603389945003646e+05  -1.0515007740200786e+06  -6.2407097727278725e+05  -1.9652147534559404e+04  -2.1321007161655143e+05  -1.4104575993399417e+06  1.2780632725590860e+07  -1.1506891653103940e+06  -1.7783389935153387e+04  5.1767445536034796e+06  -1.0934070826778687e+06  -5.1867098170948779e+05  -5.8617802439761907e+05  -9.3211075332972559e+05  -1.1548846842780763e+06  -4.3006583324975584e+05  -7.9407178145620157e+05  -1.5205100866828226e+06  -6.8952296973367163e+05  -1.4339628925935298e+05  -2.4667785652963296e+05  -5.8439813971074112e+05  -8.4910030602815430e+04  -7.0266913104179874e+05  -2.2937937782310293e+05  -1.1523457830200551e+05  -5.7947696947871940e+05  3.7356809995140135e+06  -7.0984090981366680e+04  1.4387179691790847e+07  -6.2033860006382142e+05  -1.0987068931257912e+05  -1.5800982430056466e+06  -4.4491012949969881e+05  -5.6951763046224974e+05  -1.2247588762376751e+05  -3.2598670341071970e+05  -1.7453960519845453e+06  -3.7528513653098216e+05  -1.1221384815325155e+06  -1.6573318112812538e+06  -1.0758802047403164e+06  1.1104610458787685e+07  4.5900837266497826e+06  -2.7385322876747546e+05  -1.2280755809213640e+06  -9.9579455