<?xml version="1.0"?>
<VTKFile type="UnstructuredGrid"  version="0.1"  >
<UnstructuredGrid>
<Piece  NumberOfPoints="13617" NumberOfCells="26706">
<Points>
<DataArray  type="Float64"  NumberOfComponents="3"  format="ascii">1.2 0 0  0 2.7 0  0 50 0  15.1 50 0  15.1 13 0  5.2 13 0  5.2 2.7 0  6.4 0 0  1.100000000000162 0.2249999999996352 0  1.000000000000396 0.4499999999991098 0  0.9000000000006876 0.6749999999984529 0  0.8000000000009782 0.899999999997799 0  0.7000000000012672 1.124999999997149 0  0.6000000000015488 1.349999999996515 0  0.5000000000012775 1.574999999997126 0  0.4000000000010363 1.799999999997669 0  0.3000000000008125 2.024999999998172 0  0.2000000000006392 2.249999999998562 0  0.1000000000003256 2.474999999999268 0  0 2.948947368420554 0  0 3.197894736841108 0  0 3.44684210526166 0  0 3.695789473682156 0  0 3.944736842102652 0  0 4.193684210523144 0  0 4.442631578943582 0  0 4.691578947363951 0  0 4.940526315784282 0  0 5.189473684204719 0  0 5.4384210526253 0  0 5.687368421045984 0  0 5.936315789466772 0  0 6.185263157887485 0  0 6.434210526308156 0  0 6.683157894728827 0  0 6.932105263149499 0  0 7.18105263157017 0  0 7.429999999990841 0  0 7.678947368411512 0  0 7.927894736832183 0  0 8.176842105252854 0  0 8.425789473673611 0  0 8.67473684209434 0  0 8.923684210514892 0  0 9.172631578935448 0  0 9.421578947355936 0  0 9.670526315776257 0  0 9.91947368419639 0  0 10.16842105261655 0  0 10.41736842103687 0  0 10.666315789457 0  0 10.91526315787716 0  0 11.16421052629748 0  0 11.4131578947178 0  0 11.66210526313812 0  0 11.91105263155844 0  0 12.15999999997876 0  0 12.40894736839889 0  0 12.65789473681875 0  0 12.90684210523903 0  0 13.15578947365935 0  0 13.40473684207967 0  0 13.65368421049999 0  0 13.90263157892031 0  0 14.15157894734063 0  0 14.40052631576049 0  0 14.64947368418058 0  0 14.8984210526009 0  0 15.14736842102122 0  0 15.39631578944154 0  0 15.64526315786186 0  0 15.89421052628218 0  0 16.14315789470249 0  0 16.39210526312285 0  0 16.64105263154364 0  0 16.88999999996415 0  0 17.13894736838447 0  0 17.38789473680479 0  0 17.63684210522511 0  0 17.88578947364543 0  0 18.13473684206575 0  0 18.38368421048638 0  0 18.63263157890716 0  0 18.88157894732795 0  0 19.13052631574842 0  0 19.37947368416864 0  0 19.6284210525885 0  0 19.87736842100869 0  0 20.12631578942901 0  0 20.37526315784933 0  0 20.62421052626965 0  0 20.87315789468997 0  0 21.1221052631103 0  0 21.37105263153024 0  0 21.61999999995024 0  0 21.86894736837056 0  0 22.11789473679088 0  0 22.3668421052112 0  0 22.61578947363152 0  0 22.86473684205184 0  0 23.113684210472 0  0 23.36263157889185 0  0 23.61157894731211 0  0 23.86052631573243 0  0 24.10947368415275 0  0 24.35842105257307 0  0 24.6073684209934 0  0 24.85631578941371 0  0 25.10526315783403 0  0 25.35421052625457 0  0 25.60315789467536 0  0 25.85210526309569 0  0 26.10105263151602 0  0 26.34999999993633 0  0 26.59894736835759 0  0 26.84789473677908 0  0 27.09684210520081 0  0 27.34578947362253 0  0 27.59473684204426 0  0 27.84368421046595 0  0 28.09263157888721 0  0 28.34157894730846 0  0 28.59052631572976 0  0 28.83947368415148 0  0 29.08842105257321 0  0 29.33736842099493 0  0 29.58631578941665 0  0 29.83526315783837 0  0 30.0842105262601 0  0 30.33315789468182 0  0 30.58210526310355 0  0 30.83105263152527 0  0 31.079999999947 0  0 31.32894736836872 0  0 31.57789473679044 0  0 31.82684210521216 0  0 32.07578947363424 0  0 32.32473684205654 0  0 32.5736842104792 0  0 32.82263157890114 0  0 33.0715789473226 0  0 33.32052631574339 0  0 33.56947368416492 0  0 33.81842105258693 0  0 34.0673684210096 0  0 34.31631578943225 0  0 34.56526315785491 0  0 34.81421052627757 0  0 35.06315789469942 0  0 35.31210526312079 0  0 35.56105263154159 0  0 35.8099999999632 0  0 36.0589473683853 0  0 36.30789473680796 0  0 36.55684210523063 0  0 36.80578947365287 0  0 37.05473684207459 0  0 37.30368421049542 0  0 37.55263157891665 0  0 37.80157894733837 0  0 38.05052631576101 0  0 38.29947368418367 0  0 38.54842105260632 0  0 38.79736842102804 0  0 39.04631578944927 0  0 39.2952631578701 0  0 39.54421052629182 0  0 39.79315789471407 0  0 40.04210526313673 0  0 40.29105263155938 0  0 40.53999999998149 0  0 40.78894736840311 0  0 41.03789473682389 0  0 41.28684210524526 0  0 41.53578947366712 0  0 41.78473684208978 0  0 42.03368421051182 0  0 42.28263157893338 0  0 42.53157894735417 0  0 42.78052631577496 0  0 43.02947368419593 0  0 43.27842105261765 0  0 43.52736842104006 0  0 43.77631578946249 0  0 44.02526315788421 0  0 44.27421052630523 0  0 44.52315789472603 0  0 44.77210526314681 0  0 45.02105263156832 0  0 45.26999999999033 0  0 45.51894736841299 0  0 45.76789473683488 0  0 46.01684210525629 0  0 46.26578947367708 0  0 46.51473684209788 0  0 46.763684210519 0  0 47.01263157894071 0  0 47.26157894736325 0  0 47.51052631578555 0  0 47.75947368420727 0  0 48.00842105262815 0  0 48.25736842104894 0  0 48.50631578946972 0  0 48.75526315789138 0  0 49.00421052631354 0  0 49.25315789473619 0  0 49.50210526315794 0  0 49.75105263157921 0  0.2475409836060729 50 0  0.4950819672121348 50 0  0.7426229508181359 50 0  0.9901639344241753 50 0  1.237704918030303 50 0  1.485245901636441 50 0  1.732786885242668 50 0  1.980327868848636 50 0  2.22786885245449 50 0  2.475409836060266 50 0  2.722950819666129 50 0  2.970491803271904 50 0  3.218032786877767 50 0  3.465573770483596 50 0  3.713114754089406 50 0  3.960655737695367 50 0  4.208196721301332 50 0  4.455737704907013 50 0  4.703278688513016 50 0  4.950819672118719 50 0  5.198360655724583 50 0  5.445901639330426 50 0  5.693442622936151 50 0  5.940983606542132 50 0  6.188524590147813 50 0  6.436065573753762 50 0  6.68360655735952 50 0  6.93114754096533 50 0  7.178688524571226 50 0  7.426229508176905 50 0  7.673770491783661 50 0  7.921311475390822 50 0  8.168852458998108 50 0  8.416393442605123 50 0  8.66393442621203 50 0  8.911475409819166 50 0  9.159016393425958 50 0  9.406557377033092 50 0  9.654098360639937 50 0  9.901639344247016 50 0  10.1491803278545 50 0  10.39672131146164 50 0  10.64426229506885 50 0  10.89180327867626 50 0  11.13934426228339 50 0  11.38688524589088 50 0  11.63442622949801 50 0  11.8819672131054 50 0  12.12950819671263 50 0  12.37704918031977 50 0  12.62459016392725 50 0  12.87213114753439 50 0  13.11967213114187 50 0  13.367213114749 50 0  13.61475409835628 50 0  13.86229508196362 50 0  14.10983606557076 50 0  14.35737704917825 50 0  14.60491803278538 50 0  14.85245901639283 50 0  15.1 49.74999999999798 0  15.1 49.49999999999596 0  15.1 49.24999999999395 0  15.1 48.99999999999257 0  15.1 48.74999999999265 0  15.1 48.4999999999945 0  15.1 48.24999999999729 0  15.1 48.00000000000007 0  15.1 47.75000000000176 0  15.1 47.50000000000155 0  15.1 47.25000000000002 0  15.1 46.999999999998 0  15.1 46.74999999999599 0  15.1 46.49999999999397 0  15.1 46.24999999999196 0  15.1 45.99999999999226 0  15.1 45.7499999999946 0  15.1 45.49999999999738 0  15.1 45.25000000000016 0  15.1 45.00000000000295 0  15.1 44.75000000000573 0  15.1 44.50000000000852 0  15.1 44.2500000000113 0  15.1 44.00000000001408 0  15.1 43.75000000001687 0  15.1 43.50000000001965 0  15.1 43.25000000002244 0  15.1 43.00000000002522 0  15.1 42.75000000002801 0  15.1 42.50000000003079 0  15.1 42.25000000003357 0  15.1 42.00000000003636 0  15.1 41.75000000003914 0  15.1 41.50000000004193 0  15.1 41.25000000004471 0  15.1 41.00000000004749 0  15.1 40.75000000005028 0  15.1 40.50000000005306 0  15.1 40.25000000005585 0  15.1 40.00000000005863 0  15.1 39.75000000006142 0  15.1 39.5000000000642 0  15.1 39.25000000006698 0  15.1 39.00000000006977 0  15.1 38.75000000007255 0  15.1 38.50000000007534 0  15.1 38.25000000007812 0  15.1 38.00000000008091 0  15.1 37.75000000008369 0  15.1 37.50000000008647 0  15.1 37.25000000008926 0  15.1 37.00000000009204 0  15.1 36.75000000009483 0  15.1 36.50000000009761 0  15.1 36.2500000001004 0  15.1 36.00000000010318 0  15.1 35.75000000010596 0  15.1 35.50000000010875 0  15.1 35.25000000011153 0  15.1 35.00000000011432 0  15.1 34.7500000001171 0  15.1 34.50000000011988 0  15.1 34.25000000012267 0  15.1 34.00000000012545 0  15.1 33.75000000012824 0  15.1 33.50000000013102 0  15.1 33.25000000013381 0  15.1 33.00000000013659 0  15.1 32.75000000013938 0  15.1 32.50000000014216 0  15.1 32.25000000014494 0  15.1 32.00000000014735 0  15.1 31.75000000014866 0  15.1 31.50000000014844 0  15.1 31.25000000014702 0  15.1 31.0000000001451 0  15.1 30.75000000014308 0  15.1 30.50000000014106 0  15.1 30.25000000013905 0  15.1 30.00000000013704 0  15.1 29.75000000013502 0  15.1 29.50000000013301 0  15.1 29.25000000013099 0  15.1 29.00000000012897 0  15.1 28.75000000012696 0  15.1 28.50000000012495 0  15.1 28.25000000012293 0  15.1 28.00000000012091 0  15.1 27.7500000001189 0  15.1 27.50000000011688 0  15.1 27.25000000011487 0  15.1 27.00000000011285 0  15.1 26.75000000011084 0  15.1 26.50000000010882 0  15.1 26.25000000010681 0  15.1 26.00000000010479 0  15.1 25.75000000010278 0  15.1 25.50000000010076 0  15.1 25.25000000009875 0  15.1 25.00000000009673 0  15.1 24.75000000009472 0  15.1 24.5000000000927 0  15.1 24.25000000009068 0  15.1 24.00000000008867 0  15.1 23.75000000008665 0  15.1 23.50000000008464 0  15.1 23.25000000008262 0  15.1 23.00000000008061 0  15.1 22.75000000007859 0  15.1 22.50000000007658 0  15.1 22.25000000007456 0  15.1 22.00000000007255 0  15.1 21.75000000007053 0  15.1 21.50000000006852 0  15.1 21.2500000000665 0  15.1 21.00000000006449 0  15.1 20.75000000006247 0  15.1 20.50000000006046 0  15.1 20.25000000005844 0  15.1 20.00000000005643 0  15.1 19.75000000005441 0  15.1 19.5000000000524 0  15.1 19.25000000005038 0  15.1 19.00000000004837 0  15.1 18.75000000004635 0  15.1 18.50000000004433 0  15.1 18.25000000004232 0  15.1 18.00000000004031 0  15.1 17.75000000003829 0  15.1 17.50000000003627 0  15.1 17.25000000003426 0  15.1 17.00000000003224 0  15.1 16.75000000003023 0  15.1 16.50000000002822 0  15.1 16.2500000000262 0  15.1 16
[...]
<PointData  Scalars="presion"> 
<DataArray  type="Float64"  Name="presion"  format="ascii">1.5497748873537196e+03  7.3130509225451249e+02  5.2354021961819939e+01  -3.0234187832956415e-02  3.7593918908821600e+00  -5.6699454675829955e+01  6.9271811460855986e+01  1.9571555499596434e+03  1.0027450254834583e+03  9.9884004398280376e+02  9.0210190648909611e+02  8.7417320074782401e+02  8.3760422271355787e+02  8.1430655684917861e+02  7.9096940767352885e+02  7.7127529098120226e+02  7.5330991280722196e+02  7.3487287682374733e+02  7.1894686426106875e+02  7.4255580889214002e+02  6.4975168069521180e+02  6.4401067718051490e+02  5.4738553428044850e+02  5.2204276451150747e+02  4.7039522826112818e+02  4.3397997594964113e+02  3.7211202277935047e+02  3.9735062184996082e+02  3.3334530084082803e+02  3.0215958614720279e+02  2.5629529812071263e+02  3.0467349379605895e+02  2.4095799078757156e+02  2.3866355477615170e+02  1.5720526239313324e+02  2.2256540556094458e+02  1.5387557052309029e+02  1.7700716668801269e+02  1.1130629906322535e+02  1.8072273971161297e+02  8.6237403088760047e+01  1.4236059943454356e+02  1.0245573053531594e+02  9.6366244338612489e+01  8.3646837870388893e+01  7.6919899049702195e+01  1.3154199313187749e+02  4.3389198195201786e+01  1.1457389713056816e+02  2.7006492561349955e+01  5.8785177047160239e+01  5.7450734173566920e+00  1.1111834270333765e+02  2.7436871952301555e+01  2.2641530867470738e+00  -8.5077227455607929e+00  6.6667652443319525e+01  3.1083105865143789e+01  3.8526201459058825e+01  -3.4614745792591272e+01  7.2818647549215527e+01  -1.3609542479426954e+01  1.8332078195573359e+01  -4.9255299230930916e+01  6.6849718975157202e+01  -3.4898463086073548e+01  2.1792704147106210e+01  2.5869671253692204e+01  -1.4472552300157680e+01  -1.5962913914803904e+01  3.6391804501792365e+01  -3.5250909477001791e+01  9.4517296235434003e+00  5.4247100245433622e+01  -7.0586408134067057e+01  4.7897119774288456e+01  -2.7407297516993509e+01  -4.5017996230637802e+00  2.1759545587311891e+01  1.1423330163047394e+00  -1.5637864758236484e+01  3.1990294347711757e+01  -9.4605166384467339e+00  -2.4396348556968338e+01  4.7209960047624200e+01  -1.0706458312426044e+01  -1.3721403343742216e+01  3.6700837686742702e+01  -5.3813899978542565e+01  3.3079160964077296e+01  -3.1068885907957405e+01  4.5470392438827616e+01  -5.6051335397760631e+01  5.0040535171484557e+01  -2.3101044239719556e+01  -3.7924054433971747e+01  4.8033277268674937e+01  -2.4924347794355306e+01  1.3733730980309618e+01  -4.0896669555226346e+00  2.0881398397402272e+01  -9.0840603995195330e+00  -2.2883659336321916e+01  3.6742899794299696e+01  -1.5873562405097465e+01  -1.3295343756380030e+01  4.1987216554696573e+01  -5.3983346768454403e+01  4.7899835163709426e+01  -3.9917897022388367e+01  5.9936267831417416e+00  1.3516640664422157e+01  -3.6260876765308474e+01  3.6604851251830546e+01  -5.6556200105967413e+01  3.2772538365916191e+01  -6.2250898445219804e+01  5.0695428752712388e+01  -4.6230659340901738e+01  3.8118878571531830e+01  -5.3555799390615924e+01  1.7359776017469894e+01  -3.7800938708447312e+01  3.5935140337366406e+01  -3.6038245625647704e+01  2.2915333525211590e+01  -2.1236635370596790e+01  -1.5755659161701146e+01  1.6300627021455885e+01  1.3468171172875806e+01  1.4426061652627679e+01  -2.3798878175405019e+01  -2.8280431301690561e+00  2.3605167821608863e+01  -7.5835562308255504e+01  4.7554805418012776e+01  -1.8150707255243802e+01  6.5567837112659610e-01  -3.2202917118729935e+01  5.3713076583032937e+01  -1.5561681833730166e+01  -2.9774756169662560e+01  2.9033306657671137e+01  -1.7281486568416689e+01  8.2132187945830140e+00  -1.3613915289285288e+01  2.4645178880684028e+01  -3.1241780354243190e+01  5.6341345513102388e+00  1.6245808034089858e+01  -2.0363554160711857e+01  1.6855418711879253e+01  -2.7440282712706392e+01  5.2575945900091332e+00  1.9125549965983730e+01  -4.0118467203247086e+00  -1.8308173110381816e+01  1.6173625998050262e+01  -2.2547234944479740e+01  3.8171125895145472e+01  -5.7793395139222000e+01  3.7448776072790274e+01  -2.2706134331041767e+01  1.4945836619191928e+00  1.2848802957456880e+00  1.5686267309527016e+01  2.9057626192806034e+00  -3.3016823192340972e+01  2.9329305151267249e+01  -1.6578564484175313e+01  8.1079287284767023e+00  -5.0885872764822482e+00  -1.8857506915639533e+01  2.2579335489966703e+00  2.9061732384729630e+01  -4.6234318587388096e+01  3.7205600776963209e+01  -5.4082450520443786e+01  6.1611104335062472e-01  3.7121420283277864e+01  -2.5769585865529653e+01  1.1013403768131401e+01  -4.3879788583511157e+01  4.7113783752714895e+01  -3.4300440817541251e+01  1.3370374881537076e+01  -2.0777102987838429e+01  3.0194201989003016e+01  -3.9669839839768599e+01  3.1442400298230883e+01  1.7997992985119797e+01  -3.5545210067818402e+01  -2.8562802126970865e+01  4.1168009049565292e+01  -3.1968495606340223e+01  1.7185155328124711e+01  -1.8914001993261778e+01  9.1166912294438216e+00  -3.5363195642198753e-01  2.1732671614112135e+01  -2.1330934811459027e+01  -2.8912129067157778e+01  2.4261658284957587e+01  1.6986200703568034e+01  -4.2369142722937205e+01  3.2727123305013777e+01  -5.9643330799244126e+01  3.1219597313658063e+01  -2.4460351175975852e+00  -3.2067449540369369e-01  1.0268181342973218e-01  -1.7511314621726126e-01  -1.2807865512495692e-01  -1.3213204779236237e-01  -1.4016230551383668e-01  -1.4268885791652255e-01  -1.4447784681624895e-01  -1.4542517050986556e-01  -1.4425166152946944e-01  -1.3857419418999484e-01  -1.2717063497075201e-01  -1.1009046581883354e-01  -8.6372395611763672e-02  -6.0803003913435835e-02  -2.6872590258533734e-02  4.7579620525434125e-03  3.8196126242884182e-02  6.6274686291268523e-02  9.1777340243802033e-02  1.1205844954624788e-01  1.2588609863970590e-01  1.3407975669078889e-01  1.3717081353871449e-01  1.3503471461316291e-01  1.2834225790473994e-01  1.1986779552006389e-01  1.0807097619016033e-01  9.5271690359662445e-02  8.1907557783101853e-02  6.8107470264312742e-02  5.5421916790189485e-02  4.3422547464282507e-02  3.2373841785032505e-02  2.2421050095256533e-02  1.4158109239433734e-02  7.0678924109136027e-03  7.9835612085349351e-04  -4.4010452110650701e-03  -8.6420463955357591e-03  -1.2207680252250884e-02  -1.5211702693770727e-02  -1.7852381779825705e-02  -1.9829056151521800e-02  -2.1755889594045688e-02  -2.3341273782137885e-02  -2.4372063207017972e-02  -2.5566969753281706e-02  -2.6376937354786807e-02  -2.7251318734939908e-02  -2.7772164691641611e-02  -2.8416572810372076e-02  -2.8848813575880386e-02  -2.9224482201199355e-02  -2.9550647027670414e-02  -2.9826474610187594e-02  -3.0016367326144128e-02  -3.0149633479412293e-02  -3.0221260106145842e-02  -4.2277810429038623e-02  -5.4325256461617843e-02  -6.6239949529500422e-02  -7.7868613720902952e-02  -8.9040647458680025e-02  -9.9748406790274399e-02  -1.0969341193880670e-01  -1.1883289703945468e-01  -1.2710943800283647e-01  -1.3445077392149099e-01  -1.4069322835575057e-01  -1.4575887356385225e-01  -1.4967507610319108e-01  -1.5234881918420493e-01  -1.5379272960005949e-01  -1.5397047306473921e-01  -1.5271951357430991e-01  -1.5027482633287095e-01  -1.4662830892301129e-01  -1.4155242730248607e-01  -1.3520874087735449e-01  -1.2769770029395480e-01  -1.1887356389442935e-01  -1.0883471921711478e-01  -9.7656973914536135e-02  -8.5417244452041116e-02  -7.1809566255415722e-02  -5.7397424392147671e-02  -4.1786458591773011e-02  -2.5250714820091998e-02  -7.5440237083513944e-03  1.0788313309029449e-02  3.0337721790202422e-02  5.0577641526416757e-02  7.1782193233836569e-02  9.3758971108749381e-02  1.1648930744497286e-01  1.4011242654797076e-01  1.6429874526882518e-01  1.8928717025887529e-01  2.1491408785669242e-01  2.4132564931123845e-01  2.6832811171326737e-01  2.9584043951011613e-01  3.2390315210399007e-01  3.5282310937600642e-01  3.8202232898674277e-01  4.1183273450189634e-01  4.4222238645981782e-01  4.7323028411740087e-01  5.0444558711222887e-01  5.3634871398633643e-01  5.6867336578107808e-01  6.0139064955597499e-01  6.3464678105838379e-01  6.6819587339418418e-01  7.0222158095245868e-01  7.3668000849226689e-01  7.7156520556886965e-01  8.0674041832618926e-01  8.4215679849162139e-01  8.7819704569402335e-01  9.1437706508129191e-01  9.5098473159360619e-01  9.8781648862516847e-01  1.0250539798106657e+00  1.0625717505574195e+00  1.1003192312933963e+00  1.1383776111768704e+00  1.1767267359332934e+00  1.2153365859766967e+00  1.2541082781589692e+00  1.2932296344001450e+00  1.3325084275724768e+00  1.3719537371706283e+00  1.4116484589150022e+00  1.4516194833854172e+00  1.4915664890156946e+00  1.5318296346418236e+00  1.5722352542920439e+00  1.6127951249302590e+00  1.6534565099764245e+00  1.6943040392869402e+00  1.7351473525057983e+00  1.7762093666480889e+00  1.8172504668611751e+00  1.8583082118903169e+00  1.8997128101519432e+00  1.9408007635347804e+00  1.9821532523254826e+00  2.0234506779235510e+00  2.0646896846403964e+00  2.1061772599505320e+00  2.1472684388500802e+00  2.1884432347841498e+00  2.2295881654151071e+00  2.2708363060064087e+00  2.3116522562049879e+00  2.3525374905847332e+00  2.3932759830436412e+00  2.4338723590487708e+00  2.4743041369532213e+00  2.5144859551600125e+00  2.5544790611436321e+00  2.5942499015972853e+00  2.6339488570276397e+00  2.6730006860148960e+00  2.7119347640418816e+00  2.7505121590047730e+00  2.7887265607453786e+00  2.8265750285489672e+00  2.8639379553365765e+00  2.9009769345182153e+00  2.9374329701966504e+00  2.9735531736104099e+00  3.0087479508496036e+00  3.0436930813027381e+00  3.0778723352984629e+00  3.1113917941229499e+00  3.1441760000378327e+00  3.1762646907361622e+00  3.2074449034070605e+00  3.2378566411540808e+00  3.2673524655773627e+00  3.2960979622385382e+00  3.3234139015028634e+00  3.3499724938283482e+00  3.3755908861895443e+00  3.3999723076363866e+00  3.4230697063035622e+00  3.4452863027620886e+00  3.4662278064586207e+00  3.4861115170487404e+00  3.5049008135514401e+00  3.5226188475903180e+00  3.5394149794878453e+00  3.5554633781882456e+00  3.5708607874502714e+00  3.5858726412078670e+00  3.6007761241466194e+00  3.6159555040078093e+00  3.6314225663708526e+00  3.6480526067397485e+00  3.6659276221056425e+00  3.6858961921932476e+00  3.7076704100429394e+00  3.7320564162595922e+00  3.7581827143032625e+00  3.7539902461267656e+00  3.7465185587517009e+00  3.7368209916904935e+00  3.7231911541859048e+00  3.7069959267211394e+00  3.6871514221968908e+00  3.6642226232236843e+00  3.6374295224722784e+00  3.6070574329620855e+00  3.5728159949602061e+00  3.5345001714212683e+00  3.4916277546347350e+00  3.4439798841880580e+00  3.3917692134249875e+00  3.3345902560389060e+00  3.2710182349223018e+00  3.2015736337056606e+00  3.1250629655159132e+00  3.0411829400544468e+00  2.9490278833478056e+00  2.8462414192199805e+00  2.7337346302570755e+00  2.6073817975056146e+00  2.4651106879109088e+00  2.3055580171780612e+00  2.1233237650016408e+00  1.9165524619058041e+00  1.6640006790310844e+00  1.3763550209648152e+00  1.0153754650577509e+00  5.8113590149269834e-01  -4.8812802698475488e-03  -7.6594307066559231e-01  -1.8768997690451970e+00  -3.4452256665782195e+00  -6.3228444088736531e+00  -1.1142366109695290e+01  -2.5792659134585538e+01  -1.9070648033956893e+01  -1.5636213111265409e+01  -7.8210998007875236e+00  -7.2040252354110734e-01  6.1055918411968255e+00  1.2783675266789080e+01  1.9369623619757977e+01  2.5847902329275104e+01  3.2255911210961067e+01  3.8609208704784024e+01  4.4901102051240400e+01  5.1142484966029642e+01  5.7324788701214871e+01  6.3460679852106743e+01  6.9515301617813549e+01  7.5528258335996981e+01  8.1423789036104949e+01  8.7245697335184175e+01  9.2946810193170876e+01  9.8506165180372776e+01  1.0392113127058796e+02  1.0917906370740694e+02  1.1416688184936658e+02  1.1893199233498341e+02  1.2335927305026516e+02  1.2752754732354784e+02  1.3112167382729780e+02  1.3433375635333823e+02  1.3696116125779929e+02  1.3888447170766273e+02  1.3995008628767272e+02  1.4014735291298268e+02  1.3907629691060160e+02  1.3657042434671541e+02  1.3254136865452881e+02  1.2593081927169607e+02  1.1707621614734921e+02  1.0438107880892605e+02  8.5653702869534314e+01  7.1606989878686420e+01  -5.8407429879191044e+00  2.8195892516890939e+02  3.9562321724934048e+02  4.8320436337360871e+02  5.5843413478566754e+02  6.2381545566268790e+02  6.8544932238889396e+02  7.4725305125615819e+02  8.1471685312126056e+02  8.9618326058130663e+02  9.9956823420254148e+02  1.2566601575773952e+03  1.3988260152998876e+03  1.0623746173731897e+03  1.0018897037745365e+03  9.4518580470224629e+02  9.0802507334925758e+02  8.8765055961723203e+02  8.7386235691743707e+02  8.6809911456588702e+02  8.6963267596965704e+02  8.7507741310250981e+02  8.8577037987277208e+02  9.0042945262622641e+02  9.1929153506711452e+02  9.4191870658081484e+02  9.6894425550517644e+02  9.9992633857347619e+02  1.0364453470735266e+03  1.0800154130390324e+03  1.1361054899110923e+03  1.2683380836640254e+03  2.7164306741410589e+00  3.5803624111916408e+00  1.3610026095990992e+01  2.3867541956366640e+00  -1.7633327885101180e-01  -9.5568293003505903e-02  3.4254226819953995e+00  -1.2659860309406684e-01  1.9869974978773527e+02  1.3561722638198774e+00  2.1258813047681480e-01  1.8531400899074846e+00  1.9390645438196717e+01  2.5603958645037994e+02  3.1151605901856390e+00  2.5552215591157093e+00  3.6632654545313961e+00  7.6979185810246098e-01  -4.7090463168595459e-01  4.0694688914972346e+02  -1.3546355136421246e+00  1.4886319052008143e+00  3.3769956638263747e+00  1.2902887314122668e+02  2.9717288658389691e+00  -2.6384586090065273e-02  2.4113213512453893e+02  7.9217806142412162e-01  3.0155677416223381e+00  -3.5075612616287533e-01  1.0918340934544113e+00  2.5610251143708957e+00  2.1277188857346538e+00  1.4104237950118368e+00  -6.8537856379183693e-02  8.5257772839288448e-01  1.3263892701984428e+00  8.6303817401953409e-01  -1.4980869352369647e-01  3.0394735547721514e+00  7.5818772650555932e-01  3.4809927976006506e+01  2.1635368181646775e-01  2.5747075871673499e+00  1.9252889563543710e-01  1.8426545208194415e+02  9.4952496436568072e+00  -5.5510857061707879e-02  1.7703385435330929e+00  1.0683520703254890e+00  -3.2734810735509640e-01  1.3352623992119488e+00  -7.7421404415109057e-02  2.9752889780602159e+00  2.1965946117439810e+00  -2.4308222195092444e-01  3.0735862560752376e+00  1.8231901455976720e+02  2.4678539928942786e+00  -4.9637907752753456e+00  -1.0892684020960974e-01  2.0543784573398732e-01  1.2744348076693815e+02  3.5135019736522071e+00  3.5519674321464683e+00  1.2280887175066761e+00  -2.4561171381001895e-01  2.6322770073890722e+00  -8.4631742102143157e+00  1.4347711614978864e+00  -4.4277026149166752e-02  3.0729704141179059e-01  2.0630949763916013e+00  2.1670828576464984e+02  3.4568282701180468e+00  9.7333018173948527e-01  1.4086196900745218e+00  1.0124600766805314e+00  5.1097275368259498e-01  1.8354292034391353e+00  1.8329080388561101e+00  7.3836216394455878e-01  -3.7608075191302659e-02  3.5748103326632106e+00  4.1508422758146919e+00  -2.7746180756995847e-01  2.5893205303225653e+00  -8.7165860292542391e-02  3.1871478901755148e+02  -4.7833676715451849e-02  2.0511274418783726e-01  1.4539473512520231e+00  2.3620535947324237e+00  -7.2925405051926961e-02  8.4442891579639956e-01  -1.2489410384032558e-01  1.4468959820939841e+02  4.1637782576551363e-01  -4.9294736825044672e-01  3.5798793619141134e-01  -1.7277981850693118e-02  -1.9462204437684766e-01  3.6979872383348948e+02  2.5729846510354104e+00  2.8882500047916664e+00  2.8907614728664530e+00  -1.9920791287148645e-02  1.3515927485943871e+00  3.1598778449264282e+00  3.0187622535036898e+00  2.1110381148827599e+00  1.4119192199616672e+00  2.4089123031265336e+00  -8.2171817023288451e-01  7.0524058830278818e+02  2.7890813993209833e+00  1.1313416770264288e+00  -7.3247399690515597e-03  -2.8330180431007407e-01  1.9558418980209380e+00  3.7524303853322443e+00  2.0129967667817978e+00  7.0575460584080085e-01  3.1247847896753433e+00  2.3137305222881608e+00  2.1802369756446875e+00  4.4884022502360571e-01  3.5057525721331766e+00  1.2498487321587382e+00  2.4371563418759949e+00  3.1863181535192391e+00  1.1788727636761751e+03  1.7994050607155674e+00  7.3863058097026346e-01  6.1446936360712889e-01  1.6309602023492169e+00  5.5060798445925235e-02  4.6916293742776753e+00  1.6271275686283484e+00  3.3330968698346930e+00  -1.3246091101602139e-01  2.3738775889561770e+00  4.6416802865090384e-01  -1.8757939388413528e-01  7.8818950485817095e+02  -4.0866292992651765e-02  2.7819345075423909e+00  -7.3238796530148462e-02  1.3915587010399912e+01  1.0441356226896212e+00  3.7975730247443096e-01  1.4190892947575258e+00  1.7234379807373914e+00  2.0478316256892128e+00  -3.5518203094027639e-01  3.2020809332943361e+00  2.7301865689840099e+00  1.1934915527386882e+00  1.2935978150908693e+02  1.4864105711953808e+00  2.8816172091960897e+00  6.1730709233917747e-01  8.7715851905516184e-01  2.3226767034717883e+00  2.2521891638757467e+00  -3.1269126145611714e-01  9.0622586194123209e-02  1.0787919211381087e+00  2.8089882409917539e+00  6.8350894572369547e-01  1.0746096229460220e+00  3.6380092864651568e+00  3.5565013902573273e+00  -8.6373388788239941e-02  -5.3033178632611915e-02  3.4510994249294833e+00  1.8394857385224161e+00  -2.4504247570339027e-01  7.9072948281602240e-01  7.1993996142263302e+02  -1.4170990740149786e-01  2.3510147818515943e+00  1.3128659632895608e+02  1.7819857989048755e+00  1.2554610470329020e+02  3.2305821922139675e+00  2.4799462126101048e+01  1.2656814644061436e+02  1.0299223011085199e+02  1.2016042585748279e+00  1.6544910868599716e+00  2.5002507567025605e+00  1.5393427662186161e+00  7.5221243725023068e-01  1.4695681374788112e+00  1.4102612445755528e+02  -1.5644297676541719e-01  1.5249622400248009e+00  -2.6176714179164468e-01  1.1538195313894963e+02  2.8155975833556806e+00  -7.0232458361961458e-01  1.5068679847710402e+00  9.8113838622251381e-01  1.7445712837692980e+02  1.7199485848781080e+00  7.8719201088415114e-01  2.1063622963051807e+00  1.5438871285815865e+00  2.9237900977881690e+00  2.4020201384008839e+00  9.6278805578394833e-01  -3.7976741922624541e-01  6.2330082499140121e+02  3.4101431154850457e+00  -2.3065164955540418e-01  1.0648505967511034e-01  -2.3708292253649590e-01  3.0507639442041379e-01  1.2774071657370289e-01  -5.1911934746646050e-02  7.2333894838225288e-01  1.4084930141462939e+02  -2.7777379828536795e+01  1.1522284956896913e+00  3.0049781728108718e+00  1.7792343591594482e+00  5.0492234076432774e-01  3.2884080819442438e+00  -3.1060166251489563e-01  4.1539022461231312e-01  -2.1158564412404077e-02  4.3860721513356715e-01  1.4864742007123288e+00  6.4077074972296257e+00  9.1508267867104920e-01  -1.2257269303070863e-01  2.3855831963894139e-02  3.3964559459208203e+00  8.3651884117131416e+01  3.6440798993718277e+00  -1.5669315934595140e-01  1.0248379686501092e+02  2.5854249113794210e+00  7.4218642792992284e-01  4.4968458846644360e-01  2.6497922654979691e+00  1.8853605189944611e+00  3.3049139432291547e-01  8.3173186156547052e-01  1.5704641118043148e+00  1.4377848400230311e+00  -2.7048654543495360e-01  -1.2595619707183386e-01  -3.8968176149215146e+00  -4.0002310847388839e-02  6.9109638110972027e-01  1.7841698187821439e-01  -1.6880586206675013e-01  1.1062398146828909e+00  9.3510452007676633e+01  -4.6616364391151688e-01  4.1472927592303449e+02  4.4219394662369571e-01  -6.4559818909158384e-01  1.7092484175095140e+00  9.3240058607355444e-02  6.1494587475731721e-01  -4.5492361247925062e-01  1.5303309051436298e-01  1.3442217016541800e+00  3.9782298641310299e-01  2.6559890671825839e+00  1.7551318710557566e+00  2.3494653831577175e+00  2.4581484731801405e+02  1.0419445895619143e+02  -2.6903716945785006e-01  2.2578895683041296e+00  1.9609271722469579e+00  2.2342877183453158e-01  -1.4990286896428676e-01  1.0443549273602639e+00  -1.4807198317400086e-01  6.8437290776003039e+01  1.3519984910744911e+00  1.7206155674711182e-01  -1.5146271529055175e-01  8.4506842813978546e-03  3.2858540617726075e+00  3.4408543109241805e+00  4.2252417974688150e-01  1.6654347888686263e+02  2.6640792282765813e+00  6.59759