<?xml version="1.0"?>
<VTKFile type="UnstructuredGrid"  version="0.1"  >
<UnstructuredGrid>
<Piece  NumberOfPoints="13617" NumberOfCells="26706">
<Points>
<DataArray  type="Float64"  NumberOfComponents="3"  format="ascii">1.2 0 0  0 2.7 0  0 50 0  15.1 50 0  15.1 13 0  5.2 13 0  5.2 2.7 0  6.4 0 0  1.100000000000162 0.2249999999996352 0  1.000000000000396 0.4499999999991098 0  0.9000000000006876 0.6749999999984529 0  0.8000000000009782 0.899999999997799 0  0.7000000000012672 1.124999999997149 0  0.6000000000015488 1.349999999996515 0  0.5000000000012775 1.574999999997126 0  0.4000000000010363 1.799999999997669 0  0.3000000000008125 2.024999999998172 0  0.2000000000006392 2.249999999998562 0  0.1000000000003256 2.474999999999268 0  0 2.948947368420554 0  0 3.197894736841108 0  0 3.44684210526166 0  0 3.695789473682156 0  0 3.944736842102652 0  0 4.193684210523144 0  0 4.442631578943582 0  0 4.691578947363951 0  0 4.940526315784282 0  0 5.189473684204719 0  0 5.4384210526253 0  0 5.687368421045984 0  0 5.936315789466772 0  0 6.185263157887485 0  0 6.434210526308156 0  0 6.683157894728827 0  0 6.932105263149499 0  0 7.18105263157017 0  0 7.429999999990841 0  0 7.678947368411512 0  0 7.927894736832183 0  0 8.176842105252854 0  0 8.425789473673611 0  0 8.67473684209434 0  0 8.923684210514892 0  0 9.172631578935448 0  0 9.421578947355936 0  0 9.670526315776257 0  0 9.91947368419639 0  0 10.16842105261655 0  0 10.41736842103687 0  0 10.666315789457 0  0 10.91526315787716 0  0 11.16421052629748 0  0 11.4131578947178 0  0 11.66210526313812 0  0 11.91105263155844 0  0 12.15999999997876 0  0 12.40894736839889 0  0 12.65789473681875 0  0 12.90684210523903 0  0 13.15578947365935 0  0 13.40473684207967 0  0 13.65368421049999 0  0 13.90263157892031 0  0 14.15157894734063 0  0 14.40052631576049 0  0 14.64947368418058 0  0 14.8984210526009 0  0 15.14736842102122 0  0 15.39631578944154 0  0 15.64526315786186 0  0 15.89421052628218 0  0 16.14315789470249 0  0 16.39210526312285 0  0 16.64105263154364 0  0 16.88999999996415 0  0 17.13894736838447 0  0 17.38789473680479 0  0 17.63684210522511 0  0 17.88578947364543 0  0 18.13473684206575 0  0 18.38368421048638 0  0 18.63263157890716 0  0 18.88157894732795 0  0 19.13052631574842 0  0 19.37947368416864 0  0 19.6284210525885 0  0 19.87736842100869 0  0 20.12631578942901 0  0 20.37526315784933 0  0 20.62421052626965 0  0 20.87315789468997 0  0 21.1221052631103 0  0 21.37105263153024 0  0 21.61999999995024 0  0 21.86894736837056 0  0 22.11789473679088 0  0 22.3668421052112 0  0 22.61578947363152 0  0 22.86473684205184 0  0 23.113684210472 0  0 23.36263157889185 0  0 23.61157894731211 0  0 23.86052631573243 0  0 24.10947368415275 0  0 24.35842105257307 0  0 24.6073684209934 0  0 24.85631578941371 0  0 25.10526315783403 0  0 25.35421052625457 0  0 25.60315789467536 0  0 25.85210526309569 0  0 26.10105263151602 0  0 26.34999999993633 0  0 26.59894736835759 0  0 26.84789473677908 0  0 27.09684210520081 0  0 27.34578947362253 0  0 27.59473684204426 0  0 27.84368421046595 0  0 28.09263157888721 0  0 28.34157894730846 0  0 28.59052631572976 0  0 28.83947368415148 0  0 29.08842105257321 0  0 29.33736842099493 0  0 29.58631578941665 0  0 29.83526315783837 0  0 30.0842105262601 0  0 30.33315789468182 0  0 30.58210526310355 0  0 30.83105263152527 0  0 31.079999999947 0  0 31.32894736836872 0  0 31.57789473679044 0  0 31.82684210521216 0  0 32.07578947363424 0  0 32.32473684205654 0  0 32.5736842104792 0  0 32.82263157890114 0  0 33.0715789473226 0  0 33.32052631574339 0  0 33.56947368416492 0  0 33.81842105258693 0  0 34.0673684210096 0  0 34.31631578943225 0  0 34.56526315785491 0  0 34.81421052627757 0  0 35.06315789469942 0  0 35.31210526312079 0  0 35.56105263154159 0  0 35.8099999999632 0  0 36.0589473683853 0  0 36.30789473680796 0  0 36.55684210523063 0  0 36.80578947365287 0  0 37.05473684207459 0  0 37.30368421049542 0  0 37.55263157891665 0  0 37.80157894733837 0  0 38.05052631576101 0  0 38.29947368418367 0  0 38.54842105260632 0  0 38.79736842102804 0  0 39.04631578944927 0  0 39.2952631578701 0  0 39.54421052629182 0  0 39.79315789471407 0  0 40.04210526313673 0  0 40.29105263155938 0  0 40.53999999998149 0  0 40.78894736840311 0  0 41.03789473682389 0  0 41.28684210524526 0  0 41.53578947366712 0  0 41.78473684208978 0  0 42.03368421051182 0  0 42.28263157893338 0  0 42.53157894735417 0  0 42.78052631577496 0  0 43.02947368419593 0  0 43.27842105261765 0  0 43.52736842104006 0  0 43.77631578946249 0  0 44.02526315788421 0  0 44.27421052630523 0  0 44.52315789472603 0  0 44.77210526314681 0  0 45.02105263156832 0  0 45.26999999999033 0  0 45.51894736841299 0  0 45.76789473683488 0  0 46.01684210525629 0  0 46.26578947367708 0  0 46.51473684209788 0  0 46.763684210519 0  0 47.01263157894071 0  0 47.26157894736325 0  0 47.51052631578555 0  0 47.75947368420727 0  0 48.00842105262815 0  0 48.25736842104894 0  0 48.50631578946972 0  0 48.75526315789138 0  0 49.00421052631354 0  0 49.25315789473619 0  0 49.50210526315794 0  0 49.75105263157921 0  0.2475409836060729 50 0  0.4950819672121348 50 0  0.7426229508181359 50 0  0.9901639344241753 50 0  1.237704918030303 50 0  1.485245901636441 50 0  1.732786885242668 50 0  1.980327868848636 50 0  2.22786885245449 50 0  2.475409836060266 50 0  2.722950819666129 50 0  2.970491803271904 50 0  3.218032786877767 50 0  3.465573770483596 50 0  3.713114754089406 50 0  3.960655737695367 50 0  4.208196721301332 50 0  4.455737704907013 50 0  4.703278688513016 50 0  4.950819672118719 50 0  5.198360655724583 50 0  5.445901639330426 50 0  5.693442622936151 50 0  5.940983606542132 50 0  6.188524590147813 50 0  6.436065573753762 50 0  6.68360655735952 50 0  6.93114754096533 50 0  7.178688524571226 50 0  7.426229508176905 50 0  7.673770491783661 50 0  7.921311475390822 50 0  8.168852458998108 50 0  8.416393442605123 50 0  8.66393442621203 50 0  8.911475409819166 50 0  9.159016393425958 50 0  9.406557377033092 50 0  9.654098360639937 50 0  9.901639344247016 50 0  10.1491803278545 50 0  10.39672131146164 50 0  10.64426229506885 50 0  10.89180327867626 50 0  11.13934426228339 50 0  11.38688524589088 50 0  11.63442622949801 50 0  11.8819672131054 50 0  12.12950819671263 50 0  12.37704918031977 50 0  12.62459016392725 50 0  12.87213114753439 50 0  13.11967213114187 50 0  13.367213114749 50 0  13.61475409835628 50 0  13.86229508196362 50 0  14.10983606557076 50 0  14.35737704917825 50 0  14.60491803278538 50 0  14.85245901639283 50 0  15.1 49.74999999999798 0  15.1 49.49999999999596 0  15.1 49.24999999999395 0  15.1 48.99999999999257 0  15.1 48.74999999999265 0  15.1 48.4999999999945 0  15.1 48.24999999999729 0  15.1 48.00000000000007 0  15.1 47.75000000000176 0  15.1 47.50000000000155 0  15.1 47.25000000000002 0  15.1 46.999999999998 0  15.1 46.74999999999599 0  15.1 46.49999999999397 0  15.1 46.24999999999196 0  15.1 45.99999999999226 0  15.1 45.7499999999946 0  15.1 45.49999999999738 0  15.1 45.25000000000016 0  15.1 45.00000000000295 0  15.1 44.75000000000573 0  15.1 44.50000000000852 0  15.1 44.2500000000113 0  15.1 44.00000000001408 0  15.1 43.75000000001687 0  15.1 43.50000000001965 0  15.1 43.25000000002244 0  15.1 43.00000000002522 0  15.1 42.75000000002801 0  15.1 42.50000000003079 0  15.1 42.25000000003357 0  15.1 42.00000000003636 0  15.1 41.75000000003914 0  15.1 41.50000000004193 0  15.1 41.25000000004471 0  15.1 41.00000000004749 0  15.1 40.75000000005028 0  15.1 40.50000000005306 0  15.1 40.25000000005585 0  15.1 40.00000000005863 0  15.1 39.75000000006142 0  15.1 39.5000000000642 0  15.1 39.25000000006698 0  15.1 39.00000000006977 0  15.1 38.75000000007255 0  15.1 38.50000000007534 0  15.1 38.25000000007812 0  15.1 38.00000000008091 0  15.1 37.75000000008369 0  15.1 37.50000000008647 0  15.1 37.25000000008926 0  15.1 37.00000000009204 0  15.1 36.75000000009483 0  15.1 36.50000000009761 0  15.1 36.2500000001004 0  15.1 36.00000000010318 0  15.1 35.75000000010596 0  15.1 35.50000000010875 0  15.1 35.25000000011153 0  15.1 35.00000000011432 0  15.1 34.7500000001171 0  15.1 34.50000000011988 0  15.1 34.25000000012267 0  15.1 34.00000000012545 0  15.1 33.75000000012824 0  15.1 33.50000000013102 0  15.1 33.25000000013381 0  15.1 33.00000000013659 0  15.1 32.75000000013938 0  15.1 32.50000000014216 0  15.1 32.25000000014494 0  15.1 32.00000000014735 0  15.1 31.75000000014866 0  15.1 31.50000000014844 0  15.1 31.25000000014702 0  15.1 31.0000000001451 0  15.1 30.75000000014308 0  15.1 30.50000000014106 0  15.1 30.25000000013905 0  15.1 30.00000000013704 0  15.1 29.75000000013502 0  15.1 29.50000000013301 0  15.1 29.25000000013099 0  15.1 29.00000000012897 0  15.1 28.75000000012696 0  15.1 28.50000000012495 0  15.1 28.25000000012293 0  15.1 28.00000000012091 0  15.1 27.7500000001189 0  15.1 27.50000000011688 0  15.1 27.25000000011487 0  15.1 27.00000000011285 0  15.1 26.75000000011084 0  15.1 26.50000000010882 0  15.1 26.25000000010681 0  15.1 26.00000000010479 0  15.1 25.75000000010278 0  15.1 25.50000000010076 0  15.1 25.25000000009875 0  15.1 25.00000000009673 0  15.1 24.75000000009472 0  15.1 24.5000000000927 0  15.1 24.25000000009068 0  15.1 24.00000000008867 0  15.1 23.75000000008665 0  15.1 23.50000000008464 0  15.1 23.25000000008262 0  15.1 23.00000000008061 0  15.1 22.75000000007859 0  15.1 22.50000000007658 0  15.1 22.25000000007456 0  15.1 22.00000000007255 0  15.1 21.75000000007053 0  15.1 21.50000000006852 0  15.1 21.2500000000665 0  15.1 21.00000000006449 0  15.1 20.75000000006247 0  15.1 20.50000000006046 0  15.1 20.25000000005844 0  15.1 20.00000000005643 0  15.1 19.75000000005441 0  15.1 19.5000000000524 0  15.1 19.25000000005038 0  15.1 19.00000000004837 0  15.1 18.75000000004635 0  15.1 18.50000000004433 0  15.1 18.25000000004232 0  15.1 18.00000000004031 0  15.1 17.75000000003829 0  15.1 17.50000000003627 0  15.1 17.25000000003426 0  15.1 17.00000000003224 0  15.1 16.75000000003023 0  15.1 16.50000000002822 0  15.1 16.2500000000262 0  15.1 16
[...]
<PointData  Vectors="velocidad"> 
<DataArray  type="Float64"  Name="velocidad"  NumberOfComponents="3" format="ascii">0.0000000000000000e+00 0.0000000000000000e+00 0.0000000000000000e+00  0.0000000000000000e+00 0.0000000000000000e+00 0.0000000000000000e+00  0.0000000000000000e+00 0.0000000000000000e+00 0.0000000000000000e+00  0.0000000000000000e+00 -3.8148598815626955e+00 0.0000000000000000e+00  0.0000000000000000e+00 0.0000000000000000e+00 0.0000000000000000e+00  0.0000000000000000e+00 0.0000000000000000e+00 0.0000000000000000e+00  0.0000000000000000e+00 0.0000000000000000e+00 0.0000000000000000e+00  0.0000000000000000e+00 0.0000000000000000e+00 0.0000000000000000e+00  0.0000000000000000e+00 0.0000000000000000e+00 0.0000000000000000e+00  0.0000000000000000e+00 0.0000000000000000e+00 0.0000000000000000e+00  0.0000000000000000e+00 0.0000000000000000e+00 0.0000000000000000e+00  0.0000000000000000e+00 0.0000000000000000e+00 0.0000000000000000e+00  0.0000000000000000e+00 0.0000000000000000e+00 0.0000000000000000e+00  0.0000000000000000e+00 0.0000000000000000e+00 0.0000000000000000e+00  0.0000000000000000e+00 0.0000000000000000e+00 0.0000000000000000e+00  0.0000000000000000e+00 0.0000000000000000e+00 0.0000000000000000e+00  0.0000000000000000e+00 0.0000000000000000e+00 0.0000000000000000e+00  0.0000000000000000e+00 0.0000000000000000e+00 0.0000000000000000e+00  0.0000000000000000e+00 0.0000000000000000e+00 0.0000000000000000e+00  0.0000000000000000e+00 0.0000000000000000e+00 0.0000000000000000e+00  0.0000000000000000e+00 0.0000000000000000e+00 0.0000000000000000e+00  0.0000000000000000e+00 0.0000000000000000e+00 0.0000000000000000e+00  0.0000000000000000e+00 0.0000000000000000e+00 0.0000000000000000e+00  0.0000000000000000e+00 0.0000000000000000e+00 0.0000000000000000e+00  0.0000000000000000e+00 0.0000000000000000e+00 0.0000000000000000e+00  0.0000000000000000e+00 0.0000000000000000e+00 0.0000000000000000e+00  0.0000000000000000e+00 0.0000000000000000e+00 0.0000000000000000e+00  0.0000000000000000e+00 0.0000000000000000e+00 0.0000000000000000e+00  0.0000000000000000e+00 0.0000000000000000e+00 0.0000000000000000e+00  0.0000000000000000e+00 0.0000000000000000e+00 0.0000000000000000e+00  0.0000000000000000e+00 0.0000000000000000e+00 0.0000000000000000e+00  0.0000000000000000e+00 0.0000000000000000e+00 0.0000000000000000e+00  0.0000000000000000e+00 0.0000000000000000e+00 0.0000000000000000e+00  0.0000000000000000e+00 0.0000000000000000e+00 0.0000000000000000e+00  0.0000000000000000e+00 0.0000000000000000e+00 0.0000000000000000e+00  0.0000000000000000e+00 0.0000000000000000e+00 0.0000000000000000e+00  0.0000000000000000e+00 0.0000000000000000e+00 0.0000000000000000e+00  0.0000000000000000e+00 0.0000000000000000e+00 0.0000000000000000e+00  0.0000000000000000e+00 0.0000000000000000e+00 0.0000000000000000e+00  0.0000000000000000e+00 0.0000000000000000e+00 0.0000000000000000e+00  0.0000000000000000e+00 0.0000000000000000e+00 0.0000000000000000e+00  0.0000000000000000e+00 0.0000000000000000e+00 0.0000000000000000e+00  0.0000000000000000e+00 0.0000000000000000e+00 0.0000000000000000e+00  0.0000000000000000e+00 0.0000000000000000e+00 0.0000000000000000e+00  0.0000000000000000e+00 0.0000000000000000e+00 0.0000000000000000e+00  0.0000000000000000e+00 0.0000000000000000e+00 0.0000000000000000e+00  0.0000000000000000e+00 0.0000000000000000e+00 0.0000000000000000e+00  0.0000000000000000e+00 0.0000000000000000e+00 0.0000000000000000e+00  0.0000000000000000e+00 0.0000000000000000e+00 0.0000000000000000e+00  0.0000000000000000e+00 0.0000000000000000e+00 0.0000000000000000e+00  0.0000000000000000e+00 0.0000000000000000e+00 0.0000000000000000e+00  0.0000000000000000e+00 0.0000000000000000e+00 0.0000000000000000e+00  0.0000000000000000e+00 0.0000000000000000e+00 0.0000000000000000e+00  0.0000000000000000e+00 0.0000000000000000e+00 0.0000000000000000e+00  0.0000000000000000e+00 0.0000000000000000e+00 0.0000000000000000e+00  0.0000000000000000e+00 0.0000000000000000e+00 0.0000000000000000e+00  0.0000000000000000e+00 0.0000000000000000e+00 0.0000000000000000e+00  0.0000000000000000e+00 0.0000000000000000e+00 0.0000000000000000e+00  0.0000000000000000e+00 0.0000000000000000e+00 0.0000000000000000e+00  0.0000000000000000e+00 0.0000000000000000e+00 0.0000000000000000e+00  0.0000000000000000e+00 0.0000000000000000e+00 0.0000000000000000e+00  0.0000000000000000e+00 0.0000000000000000e+00 0.0000000000000000e+00  0.0000000000000000e+00 0.0000000000000000e+00 0.0000000000000000e+00  0.0000000000000000e+00 0.0000000000000000e+00 0.0000000000000000e+00  0.0000000000000000e+00 0.0000000000000000e+00 0.0000000000000000e+00  0.0000000000000000e+00 0.0000000000000000e+00 0.0000000000000000e+00  0.0000000000000000e+00 0.0000000000000000e+00 0.0000000000000000e+00  0.0000000000000000e+00 0.0000000000000000e+00 0.0000000000000000e+00  0.0000000000000000e+00 0.0000000000000000e+00 0.0000000000000000e+00  0.0000000000000000e+00 0.0000000000000000e+00 0.0000000000000000e+00  0.0000000000000000e+00 0.0000000000000000e+00 0.0000000000000000e+00  0.0000000000000000e+00 0.0000000000000000e+00 0.0000000000000000e+00  0.0000000000000000e+00 0.0000000000000000e+00 0.0000000000000000e+00  0.0000000000000000e+00 0.0000000000000000e+00 0.0000000000000000e+00  0.0000000000000000e+00 0.0000000000000000e+00 0.0000000000000000e+00  0.0000000000000000e+00 0.0000000000000000e+00 0.0000000000000000e+00  0.0000000000000000e+00 0.0000000000000000e+00 0.0000000000000000e+00  0.0000000000000000e+00 0.0000000000000000e+00 0.0000000000000000e+00  0.0000000000000000e+00 0.0000000000000000e+00 0.0000000000000000e+00  0.0000000000000000e+00 0.0000000000000000e+00 0.0000000000000000e+00  0.0000000000000000e+00 0.0000000000000000e+00 0.0000000000000000e+00  0.0000000000000000e+00 0.0000000000000000e+00 0.0000000000000000e+00  0.0000000000000000e+00 0.0000000000000000e+00 0.0000000000000000e+00  0.0000000000000000e+00 0.0000000000000000e+00 0.0000000000000000e+00  0.0000000000000000e+00 0.0000000000000000e+00 0.0000000000000000e+00  0.0000000000000000e+00 0.0000000000000000e+00 0.0000000000000000e+00  0.0000000000000000e+00 0.0000000000000000e+00 0.0000000000000000e+00  0.0000000000000000e+00 0.0000000000000000e+00 0.0000000000000000e+00  0.0000000000000000e+00 0.0000000000000000e+00 0.0000000000000000e+00  0.0000000000000000e+00 0.0000000000000000e+00 0.0000000000000000e+00  0.0000000000000000e+00 0.0000000000000000e+00 0.0000000000000000e+00  0.0000000000000000e+00 0.0000000000000000e+00 0.0000000000000000e+00  0.0000000000000000e+00 0.0000000000000000e+00 0.0000000000000000e+00  0.0000000000000000e+00 0.0000000000000000e+00 0.0000000000000000e+00  0.0000000000000000e+00 0.0000000000000000e+00 0.0000000000000000e+00  0.0000000000000000e+00 0.0000000000000000e+00 0.0000000000000000e+00  0.0000000000000000e+00 0.0000000000000000e+00 0.0000000000000000e+00  0.0000000000000000e+00 0.0000000000000000e+00 0.0000000000000000e+00  0.0000000000000000e+00 0.0000000000000000e+00 0.0000000000000000e+00  0.0000000000000000e+00 0.0000000000000000e+00 0.0000000000000000e+00  0.0000000000000000e+00 0.0000000000000000e+00 0.0000000000000000e+00  0.0000000000000000e+00 0.0000000000000000e+00 0.0000000000000000e+00  0.0000000000000000e+00 0.0000000000000000e+00 0.0000000000000000e+00  0.0000000000000000e+00 0.0000000000000000e+00 0.0000000000000000e+00  0.0000000000000000e+00 0.0000000000000000e+00 0.0000000000000000e+00  0.0000000000000000e+00 0.0000000000000000e+00 0.0000000000000000e+00  0.0000000000000000e+00 0.0000000000000000e+00 0.0000000000000000e+00  0.0000000000000000e+00 0.0000000000000000e+00 0.0000000000000000e+00  0.0000000000000000e+00 0.0000000000000000e+00 0.0000000000000000e+00  0.0000000000000000e+00 0.0000000000000000e+00 0.0000000000000000e+00  0.0000000000000000e+00 0.0000000000000000e+00 0.0000000000000000e+00  0.0000000000000000e+00 0.0000000000000000e+00 0.0000000000000000e+00  0.0000000000000000e+00 0.0000000000000000e+00 0.0000000000000000e+00  0.0000000000000000e+00 0.0000000000000000e+00 0.0000000000000000e+00  0.0000000000000000e+00 0.0000000000000000e+00 0.0000000000000000e+00  0.0000000000000000e+00 0.0000000000000000e+00 0.0000000000000000e+00  0.0000000000000000e+00 0.0000000000000000e+00 0.0000000000000000e+00  0.0000000000000000e+00 0.0000000000000000e+00 0.0000000000000000e+00  0.0000000000000000e+00 0.0000000000000000e+00 0.0000000000000000e+00  0.0000000000000000e+00 0.0000000000000000e+00 0.0000000000000000e+00  0.0000000000000000e+00 0.0000000000000000e+00 0.0000000000000000e+00  0.0000000000000000e+00 0.0000000000000000e+00 0.0000000000000000e+00  0.0000000000000000e+00 0.0000000000000000e+00 0.0000000000000000e+00  0.0000000000000000e+00 0.0000000000000000e+00 0.0000000000000000e+00  0.0000000000000000e+00 0.0000000000000000e+00 0.0000000000000000e+00  0.0000000000000000e+00 0.0000000000000000e+00 0.0000000000000000e+00  0.0000000000000000e+00 0.0000000000000000e+00 0.0000000000000000e+00  0.0000000000000000e+00 0.0000000000000000e+00 0.0000000000000000e+00  0.0000000000000000e+00 0.0000000000000000e+00 0.0000000000000000e+00  0.0000000000000000e+00 0.0000000000000000e+00 0.0000000000000000e+00  0.0000000000000000e+00 0.0000000000000000e+00 0.0000000000000000e+00  0.0000000000000000e+00 0.0000000000000000e+00 0.0000000000000000e+00  0.0000000000000000e+00 0.0000000000000000e+00 0.0000000000000000e+00  0.0000000000000000e+00 0.0000000000000000e+00 0.0000000000000000e+00  0.0000000000000000e+00 0.0000000000000000e+00 0.0000000000000000e+00  0.0000000000000000e+00 0.0000000000000000e+00 0.0000000000000000e+00  0.0000000000000000e+00 0.0000000000000000e+00 0.0000000000000000e+00  0.0000000000000000e+00 0.0000000000000000e+00 0.0000000000000000e+00  0.0000000000000000e+00 0.0000000000000000e+00 0.0000000000000000e+00  0.0000000000000000e+00 0.0000000000000000e+00 0.0000000000000000e+00  0.0000000000000000e+00 0.0000000000000000e+00 0.0000000000000000e+00  0.0000000000000000e+00 0.0000000000000000e+00 0.0000000000000000e+00  0.0000000000000000e+00 0.0000000000000000e+00 0.0000000000000000e+00  0.0000000000000000e+00 0.0000000000000000e+00 0.0000000000000000e+00  0.0000000000000000e+00 0.0000000000000000e+00 0.0000000000000000e+00  0.0000000000000000e+00 0.0000000000000000e+00 0.0000000000000000e+00  0.0000000000000000e+00 0.0000000000000000e+00 0.0000000000000000e+00  0.0000000000000000e+00 0.0000000000000000e+00 0.0000000000000000e+00  0.0000000000000000e+00 0.0000000000000000e+00 0.0000000000000000e+00  0.0000000000000000e+00 0.0000000000000000e+00 0.0000000000000000e+00  0.0000000000000000e+00 0.0000000000000000e+00 0.0000000000000000e+00  0.0000000000000000e+00 0.0000000000000000e+00 0.0000000000000000e+00  0.0000000000000000e+00 0.0000000000000000e+00 0.0000000000000000e+00  0.0000000000000000e+00 0.0000000000000000e+00 0.0000000000000000e+00  0.0000000000000000e+00 0.0000000000000000e+00 0.0000000000000000e+00  0.0000000000000000e+00 0.0000000000000000e+00 0.0000000000000000e+00  0.0000000000000000e+00 0.0000000000000000e+00 0.0000000000000000e+00  0.0000000000000000e+00 0.0000000000000000e+00 0.0000000000000000e+00  0.0000000000000000e+00 0.0000000000000000e+00 0.0000000000000000e+00  0.0000000000000000e+00 0.0000000000000000e+00 0.0000000000000000e+00  0.0000000000000000e+00 0.0000000000000000e+00 0.0000000000000000e+00  0.0000000000000000e+00 0.0000000000000000e+00 0.0000000000000000e+00  0.0000000000000000e+00 0.0000000000000000e+00 0.0000000000000000e+00  0.0000000000000000e+00 0.0000000000000000e+00 0.0000000000000000e+00  0.0000000000000000e+00 0.0000000000000000e+00 0.0000000000000000e+00  0.0000000000000000e+00 0.0000000000000000e+00 0.0000000000000000e+00  0.0000000000000000e+00 0.0000000000000000e+00 0.0000000000000000e+00  0.0000000000000000e+00 0.0000000000000000e+00 0.0000000000000000e+00  0.0000000000000000e+00 0.0000000000000000e+00 0.0000000000000000e+00  0.0000000000000000e+00 0.0000000000000000e+00 0.0000000000000000e+00  0.0000000000000000e+00 0.0000000000000000e+00 0.0000000000000000e+00  0.0000000000000000e+00 0.0000000000000000e+00 0.0000000000000000e+00  0.0000000000000000e+00 0.0000000000000000e+00 0.0000000000000000e+00  0.0000000000000000e+00 0.0000000000000000e+00 0.0000000000000000e+00  0.0000000000000000e+00 0.0000000000000000e+00 0.0000000000000000e+00  0.0000000000000000e+00 0.0000000000000000e+00 0.0000000000000000e+00  0.0000000000000000e+00 0.0000000000000000e+00 0.0000000000000000e+00  0.0000000000000000e+00 0.0000000000000000e+00 0.0000000000000000e+00  0.0000000000000000e+00 0.0000000000000000e+00 0.0000000000000000e+00  0.0000000000000000e+00 0.0000000000000000e+00 0.0000000000000000e+00  0.0000000000000000e+00 0.0000000000000000e+00 0.0000000000000000e+00  0.0000000000000000e+00 0.0000000000000000e+00 0.0000000000000000e+00  0.0000000000000000e+00 0.0000000000000000e+00 0.0000000000000000e+00  0.0000000000000000e+00 0.0000000000000000e+00 0.0000000000000000e+00  0.0000000000000000e+00 0.0000000000000000e+00 0.0000000000000000e+00  0.0000000000000000e+00 0.0000000000000000e+00 0.0000000000000000e+00  0.0000000000000000e+00 0.0000000000000000e+00 0.0000000000000000e+00  0.0000000000000000e+00 0.0000000000000000e+00 0.0000000000000000e+00  0.0000000000000000e+00 0.0000000000000000e+00 0.0000000000000000e+00  0.0000000000000000e+00 0.0000000000000000e+00 0.0000000000000000e+00  0.0000000000000000e+00 0.0000000000000000e+00 0.0000000000000000e+00  0.0000000000000000e+00 0.0000000000000000e+00 0.0000000000000000e+00  0.0000000000000000e+00 0.0000000000000000e+00 0.0000000000000000e+00  0.0000000000000000e+00 0.0000000000000000e+00 0.0000000000000000e+00  0.0000000000000000e+00 0.0000000000000000e+00 0.0000000000000000e+00  0.0000000000000000e+00 0.0000000000000000e+00 0.0000000000000000e+00  0.0000000000000000e+00 0.0000000000000000e+00 0.0000000000000000e+00  0.0000000000000000e+00 0.0000000000000000e+00 0.0000000000000000e+00  0.0000000000000000e+00 0.0000000000000000e+00 0.0000000000000000e+00  0.0000000000000000e+00 0.0000000000000000e+00 0.0000000000000000e+00  0.0000000000000000e+00 0.0000000000000000e+00 0.0000000000000000e+00  0.0000000000000000e+00 0.0000000000000000e+00 0.0000000000000000e+00  0.0000000000000000e+00 0.0000000000000000e+00 0.0000000000000000e+00  0.0000000000000000e+00 0.0000000000000000e+00 0.0000000000000000e+00  0.0000000000000000e+00 0.0000000000000000e+00 0.0000000000000000e+00  0.0000000000000000e+00 0.0000000000000000e+00 0.0000000000000000e+00  0.0000000000000000e+00 0.0000000000000000e+00 0.0000000000000000e+00  0.0000000000000000e+00 0.0000000000000000e+00 0.0000000000000000e+00  2.9350112850413052e-01 3.2157367977408114e+01 0.0000000000000000e+00  7.5036402575034980e-02 3.9303134925359451e+01 0.0000000000000000e+00  4.7011987980285053e-02 4.3179520188644368e+01 0.0000000000000000e+00  6.0237150002486653e-02 4.5661633105421920e+01 0.0000000000000000e+00  7.5543044933291933e-02 4.7284167128732761e+01 0.0000000000000000e+00  9.3543514021831531e-02 4.8271638148613413e+01 0.0000000000000000e+00  1.1190056361240462e-01 4.8742046279580514e+01 0.0000000000000000e+00  1.3049370845211511e-01 4.8761325349718049e+01 0.0000000000000000e+00  1.4946411006967766e-01 4.8366882302716270e+01 0.0000000000000000e+00  1.6863638802873460e-01 4.7581340082828483e+01 0.0000000000000000e+00  1.8762986410859578e-01 4.6420404569469213e+01 0.0000000000000000e+00  2.0570398285438948e-01 4.4900400232801132e+01 0.0000000000000000e+00  2.2178298424687171e-01 4.3043931725681716e+01 0.0000000000000000e+00  2.3473502886143938e-01 4.0884232537833455e+01 0.0000000000000000e+00  2.4308454827173873e-01 3.8466506430060356e+01 0.0000000000000000e+00  2.4582267719863532e-01 3.5847821203787966e+01 0.0000000000000000e+00  2.4207601480218152e-01 3.3093102182070766e+01 0.0000000000000000e+00  2.3156317693676645e-01 3.0270833763144608e+01 0.0000000000000000e+00  2.1432600947973218e-01 2.7447744423913061e+01 0.0000000000000000e+00  1.9105957724570033e-01 2.4683857999534442e+01 0.0000000000000000e+00  1.6275880200792975e-01 2.2029023634799426e+01 0.0000000000000000e+00  1.3063626264540376e-01 1.9521248352398747e+01 0.0000000000000000e+00  9.6082578113194761e-02 1.7186007239711905e+01 0.0000000000000000e+00  6.0533283194790288e-02 1.5037380346652954e+01 0.0000000000000000e+00  2.5130890843178100e-02 1.3079556967959574e+01 0.0000000000000000e+00  -8.9006628069575894e-03 1.1309059116180286e+01 0.0000000000000000e+00  -4.0636856586427357e-02 9.7167174261226332e+00 0.0000000000000000e+00  -6.9484289163340263e-02 8.2899331663378515e+00 0.0000000000000000e+00  -9.4849603525311452e-02 7.0141400341729101e+00 0.0000000000000000e+00  -1.1648205781417882e-01 5.8740704894009452e+00 0.0000000000000000e+00  -1.3433445522082693e-01 4.8548797077302410e+00 0.0000000000000000e+00  -1.4843045418511247e-01 3.9426194691922247e+00 0.0000000000000000e+00  -1.5899883604980372e-01 3.1246722095555111e+00 0.0000000000000000e+00  -1.6634207685884303e-01 2.3898850666053497e+00 0.0000000000000000e+00  -1.7077390251556929e-01 1.7284159505753987e+00 0.0000000000000000e+00  -1.7272830336978315e-01 1.1318765874307763e+00 0.0000000000000000e+00  -1.7253219676772003e-01 5.9306764450061622e-01 0.0000000000000000e+00  -1.7055397112514889e-01 1.0572829683373351e-01 0.0000000000000000e+00  -1.6712587642022708e-01 -3.3551002619690856e-01 0.0000000000000000e+00  -1.6249975746596484e-01 -7.3527468902462434e-01 0.0000000000000000e+00  -1.5694111870520189e-01 -1.0975691208809739e+00 0.0000000000000000e+00  -1.5065054533673886e-01 -1.4259431767664574e+00 0.0000000000000000e+00  -1.4377003647908490e-01 -1.7234700123016329e+00 0.0000000000000000e+00  -1.3644741307118904e-01 -1.9928765939041719e+00 0.0000000000000000e+00  -1.2879610026803864e-01 -2.2365512135770125e+00 0.0000000000000000e+00  -1.2090326216693235e-01 -2.4566410299042132e+00 0.0000000000000000e+00  -1.1282445453425008e-01 -2.6550222327240531e+00 0.0000000000000000e+00  -1.0463434707898857e-01 -2.8333526487916525e+00 0.0000000000000000e+00  -9.6368751916654588e-02 -2.9931365382276831e+00 0.0000000000000000e+00  -8.8072113397624427e-02 -3.1356719015269889e+00 0.0000000000000000e+00  -7.9764946913737103e-02 -3.2621277633532779e+00 0.0000000000000000e+00  -7.1476822742551627e-02 -3.3735198048784780e+00 0.0000000000000000e+00  -6.3221115882190662e-02 -3.4707560882046167e+00 0.0000000000000000e+00  -5.5024490393570914e-02 -3.5546245850142073e+00 0.0000000000000000e+00  -4.6887783325117942e-02 -3.6258160857842201e+00 0.0000000000000000e+00  -3.8832594130894779e-02 -3.6849313649927966e+00 0.0000000000000000e+00  -3.0859301491460447e-02 -3.7324853178258781e+00 0.0000000000000000e+00  -2.2985355027400792e-02 -3.7689159790657989e+00 0.0000000000000000e+00  -1.5210969026367574e-02 -3.7945967164794827e+00 0.0000000000000000e+00  -7.5474953928218388e-03 -3.8098285070644931e+00 0.0000000000000000e+00  0.0000000000000000e+00 -3.8072925275742922e+00 0.0000000000000000e+00  0.0000000000000000e+00 -3.7996842955449224e+00 0.0000000000000000e+00  0.0000000000000000e+00 -3.7919953585394834e+00 0.0000000000000000e+00  0.0000000000000000e+00 -3.7841873520925771e+00 0.0000000000000000e+00  0.0000000000000000e+00 -3.7762209083765099e+00 0.0000000000000000e+00  0.0000000000000000e+00 -3.7680651352125989e+00 0.0000000000000000e+00  0.0000000000000000e+00 -3.7596815362909242e+00 0.0000000000000000e+00  0.0000000000000000e+00 -3.7510415571986298e+00 0.0000000000000000e+00  0.0000000000000000e+00 -3.7421172241189309e+00 0.0000000000000000e+00  0.0000000000000000e+00 -3.7328847279187976e+00 0.0000000000000000e+00  0.0000000000000000e+00 -3.7233209346447360e+00 0.0000000000000000e+00  0.0000000000000000e+00 -3.7134077207202498e+00 0.0000000000000000e+00  0.0000000000000000e+00 -3.7031291901999448e+00 0.0000000000000000e+00  0.0000000000000000e+00 -3.6924738364021095e+00 0.0000000000000000e+00  0.0000000000000000e+00 -3.6814321666420615e+00 0.0000000000000000e+00 